============================== echo of input deck ==============================
start
memory total 1800 mb
echo

BASIS
  * library 3-21G*
END

DFT
   xc B3LYP
   grid fine
   iterations 120
   mult 1
   direct
   print none
END

GEOMETRY UNITS ANGSTROM noautoz print
B   1.70750   -0.57500   -1.20910
C   0.77110   -0.31240   0.07560
C   1.63680   -0.15660   1.34020
C   -0.25790   -1.44790   0.25690
C   -1.54470   -0.97980   -0.42240
C   -1.53330   0.54760   -0.35980
O   -2.27610   1.00750   0.73800
C   -0.09450   0.89440   -0.16760
C   0.35610   2.15730   -0.23870
H   1.59010   -1.55350   -1.86150
H   2.51670   0.22710   -1.52260
H   2.16010   -1.11040   1.56920
H   2.40350   0.63700   1.20860
H   1.00560   0.11490   2.21410
H   -0.48200   -1.60450   1.33640
H   0.08170   -2.42440   -0.15480
H   -2.44280   -1.41350   0.06950
H   -1.53160   -1.30410   -1.48660
H   -1.91490   0.98410   -1.31230
H   -3.23140   0.95330   0.47370
H   -0.33020   2.97690   -0.42790
H   1.41050   2.38210   -0.11890

END

charge 0

DRIVER
   gmax 0.00045
   grms 0.0003
   xmax 0.0018
   xrms 0.0012
   maxiter  120
END
TASK DFT OPTIMIZE

================================================================================

@ Step       Energy      Delta E   Gmax     Grms     Xrms     Xmax   Walltime
@ ---- ---------------- -------- -------- -------- -------- -------- --------
@    0    -372.52711540  0.0D+00  0.03869  0.01184  0.00000  0.00000     87.0
@    1    -372.53418593 -7.1D-03  0.01182  0.00424  0.02635  0.06956    156.7
@    2    -372.53597404 -1.8D-03  0.01000  0.00230  0.01962  0.06523    265.6
@    3    -372.53682157 -8.5D-04  0.00591  0.00203  0.01684  0.05277    327.2
@    4    -372.53737554 -5.5D-04  0.00489  0.00158  0.01579  0.04485    427.5
@    5    -372.53797319 -6.0D-04  0.00380  0.00160  0.02670  0.07923    527.1
@    6    -372.53889991 -9.3D-04  0.00572  0.00209  0.04894  0.16032    634.2
@    7    -372.53984504 -9.5D-04  0.00906  0.00258  0.06230  0.20676    742.2
@    8    -372.54083604 -9.9D-04  0.00681  0.00211  0.02457  0.07482    842.3
@    9    -372.54170232 -8.7D-04  0.00897  0.00314  0.06648  0.24304    957.3
@   10    -372.54263819 -9.4D-04  0.00697  0.00222  0.02252  0.07661   1060.9
@   11    -372.54377434 -1.1D-03  0.01146  0.00290  0.07485  0.33805   1162.8
@   12    -372.54457804 -8.0D-04  0.00480  0.00172  0.01985  0.05827   1265.0
@   13    -372.54499405 -4.2D-04  0.00444  0.00145  0.03698  0.16662   1333.8
@   14    -372.54541708 -4.2D-04  0.00627  0.00147  0.02261  0.06448   1435.5
@   15    -372.54568573 -2.7D-04  0.00201  0.00088  0.02357  0.10087   1536.9
@   16    -372.54590858 -2.2D-04  0.00331  0.00107  0.01663  0.04203   1638.8
@   17    -372.54607018 -1.6D-04  0.00334  0.00086  0.01526  0.05774   1725.1
@   18    -372.54618186 -1.1D-04  0.00239  0.00067  0.01179  0.03379   1818.9
@   19    -372.54626903 -8.7D-05  0.00192  0.00067  0.01200  0.03995   1912.3
@   20    -372.54633565 -6.7D-05  0.00085  0.00036  0.01005  0.03347   2004.3
@   21    -372.54636966 -3.4D-05  0.00085  0.00035  0.00856  0.02790   2094.9
@   22    -372.54640276 -3.3D-05  0.00072  0.00037  0.00875  0.02887   2178.2
@   23    -372.54642732 -2.5D-05  0.00088  0.00030  0.00821  0.02654   2264.5
@   24    -372.54644484 -1.8D-05  0.00090  0.00030  0.00544  0.01342   2351.7
@   25    -372.54645619 -1.1D-05  0.00053  0.00022  0.00483  0.01829   2430.8
@   26    -372.54647007 -1.4D-05  0.00062  0.00026  0.00598  0.01464   2519.1
@   27    -372.54649231 -2.2D-05  0.00078  0.00034  0.00958  0.02962   2606.2
@   28    -372.54651867 -2.6D-05  0.00102  0.00030  0.01286  0.03431   2691.6
@   29    -372.54653911 -2.0D-05  0.00055  0.00020  0.01015  0.02841   2777.1
@   30    -372.54654779 -8.7D-06  0.00041  0.00016  0.00386  0.01212   2849.5
@   31    -372.54655254 -4.7D-06  0.00040  0.00013  0.00206  0.00718   2895.0
@   32    -372.54656073 -8.2D-06  0.00047  0.00017  0.00766  0.02555   2967.1
@   33    -372.54656400 -3.3D-06  0.00034  0.00013  0.00113  0.00306   3014.1
@   34    -372.54657283 -8.8D-06  0.00050  0.00018  0.00736  0.02090   3093.0
@   35    -372.54657597 -3.1D-06  0.00047  0.00014  0.00120  0.00385   3140.7
@   36    -372.54658467 -8.7D-06  0.00035  0.00012  0.00935  0.02606   3220.5
@   37    -372.54658640 -1.7D-06  0.00027  0.00009  0.00080  0.00305   3260.7
@   38    -372.54659032 -3.9D-06  0.00018  0.00007  0.00405  0.01163   3315.3
@   39    -372.54659132 -1.0D-06  0.00022  0.00007  0.00107  0.00396   3361.9
@   40    -372.54659300 -1.7D-06  0.00022  0.00007  0.00235  0.00772   3408.6
@   41    -372.54659425 -1.3D-06  0.00018  0.00007  0.00170  0.00565   3455.4
@   42    -372.54659553 -1.3D-06  0.00017  0.00006  0.00211  0.00748   3504.0
@   43    -372.54659632 -7.9D-07  0.00014  0.00004  0.00139  0.00472   3551.2
@   44    -372.54659691 -5.8D-07  0.00014  0.00003  0.00103  0.00341   3598.0
@   45    -372.54659729 -3.9D-07  0.00009  0.00003  0.00071  0.00222   3636.1
@   46    -372.54659750 -2.1D-07  0.00006  0.00003  0.00060  0.00187   3681.1
@   47    -372.54659782 -3.1D-07  0.00008  0.00002  0.00066  0.00211   3719.7
@   48    -372.54659794 -1.3D-07  0.00009  0.00002  0.00034  0.00106   3758.0
@   48    -372.54659794 -1.3D-07  0.00009  0.00002  0.00034  0.00106   3758.0

 Output coordinates in angstroms (scale by  1.889725989 to convert to a.u.)

  No.       Tag          Charge          X              Y              Z
 ---- ---------------- ---------- -------------- -------------- --------------
    1 B                    5.0000    -0.09843707    -1.77956846    -1.17134454
    2 C                    6.0000    -0.22562254    -1.03768699     0.21374815
    3 C                    6.0000     0.28035041    -1.76981584     1.46804997
    4 C                    6.0000    -1.54237666    -0.23650497     0.45105565
    5 C                    6.0000    -1.48608535     0.92194585    -0.57408909
    6 C                    6.0000    -0.00602735     1.34972334    -0.51229162
    7 O                    8.0000     0.26582646     2.06265659     0.74857689
    8 C                    6.0000     0.74881370     0.03901575    -0.33192128
    9 C                    6.0000     2.03706768    -0.15368965    -0.64711729
   10 H                    1.0000    -0.74496956    -1.44203263    -2.11789076
   11 H                    1.0000     0.69798149    -2.66386386    -1.29139086
   12 H                    1.0000    -0.44436768    -2.53290302     1.77691720
   13 H                    1.0000     1.23427566    -2.27191524     1.27595959
   14 H                    1.0000     0.41622401    -1.06006813     2.29252154
   15 H                    1.0000    -1.50999263     0.19234652     1.45881680
   16 H                    1.0000    -2.43523015    -0.85818018     0.34501619
   17 H                    1.0000    -2.16068390     1.74848454    -0.32486265
   18 H                    1.0000    -1.72655585     0.56284248    -1.57898784
   19 H                    1.0000     0.32599888     1.92073214    -1.38887012
   20 H                    1.0000    -0.35669789     2.84175027     0.77468896
   21 H                    1.0000     2.63628980     0.64388800    -1.07548169
   22 H                    1.0000     2.54311694    -1.09157203    -0.44676170

 Total times  cpu:     3727.2s     wall:     3758.4s
         Total DFT energy =     -372.546597863694

                       DFT Final Molecular Orbital Analysis
                       ------------------------------------

 Vector    1  Occ=2.000000D+00  E=-1.902561D+01

 Vector   28  Occ=2.000000D+00  E=-3.410943D-01

 Vector   29  Occ=2.000000D+00  E=-3.335265D-01

 Vector   30  Occ=2.000000D+00  E=-3.177148D-01

 Vector   31  Occ=2.000000D+00  E=-3.064686D-01

 Vector   32  Occ=2.000000D+00  E=-2.870141D-01

 Vector   33  Occ=2.000000D+00  E=-2.576442D-01

 Vector   34  Occ=2.000000D+00  E=-2.517825D-01

 Vector   35  Occ=0.000000D+00  E=-2.808364D-02

 Vector   36  Occ=0.000000D+00  E= 2.742275D-02

 Vector   37  Occ=0.000000D+00  E= 1.012698D-01

 Vector   38  Occ=0.000000D+00  E= 1.240189D-01

 Vector   39  Occ=0.000000D+00  E= 1.430709D-01

 Vector   40  Occ=0.000000D+00  E= 1.475394D-01

 Vector   41  Occ=0.000000D+00  E= 1.545534D-01

 Vector   42  Occ=0.000000D+00  E= 1.663054D-01

 Vector   43  Occ=0.000000D+00  E= 1.705531D-01

 Vector   44  Occ=0.000000D+00  E= 1.815832D-01

 Vector   45  Occ=0.000000D+00  E= 1.916053D-01

 Vector   46  Occ=0.000000D+00  E= 1.960550D-01

 Vector   47  Occ=0.000000D+00  E= 2.111772D-01

 Vector   48  Occ=0.000000D+00  E= 2.236588D-01

 Vector   49  Occ=0.000000D+00  E= 2.251362D-01

 Vector   50  Occ=0.000000D+00  E= 2.390564D-01

 Vector   51  Occ=0.000000D+00  E= 2.605733D-01

 Vector   52  Occ=0.000000D+00  E= 2.626974D-01

 Vector   53  Occ=0.000000D+00  E= 2.723773D-01

 Vector   54  Occ=0.000000D+00  E= 3.010304D-01

 Vector   55  Occ=0.000000D+00  E= 3.063691D-01

 Vector   56  Occ=0.000000D+00  E= 3.335394D-01

 Vector   57  Occ=0.000000D+00  E= 3.625830D-01

 Vector   58  Occ=0.000000D+00  E= 4.080674D-01

 Vector   59  Occ=0.000000D+00  E= 4.879752D-01

 Vector   60  Occ=0.000000D+00  E= 5.003770D-01

 Vector   61  Occ=0.000000D+00  E= 5.238948D-01

 Vector   62  Occ=0.000000D+00  E= 6.576583D-01

 Vector   63  Occ=0.000000D+00  E= 6.679131D-01

 Vector   64  Occ=0.000000D+00  E= 6.958993D-01

 Vector   65  Occ=0.000000D+00  E= 7.118085D-01

 Vector   66  Occ=0.000000D+00  E= 7.503641D-01

 Vector   67  Occ=0.000000D+00  E= 7.563882D-01

 Vector   68  Occ=0.000000D+00  E= 7.697007D-01

 Vector   69  Occ=0.000000D+00  E= 7.737339D-01

 Vector   70  Occ=0.000000D+00  E= 7.922343D-01

 Vector   71  Occ=0.000000D+00  E= 8.144165D-01

 Vector   72  Occ=0.000000D+00  E= 8.388003D-01

 Vector   73  Occ=0.000000D+00  E= 8.632225D-01

 Vector   74  Occ=0.000000D+00  E= 8.782619D-01

 Vector   75  Occ=0.000000D+00  E= 8.976287D-01

 Vector   76  Occ=0.000000D+00  E= 9.559179D-01

 Vector   77  Occ=0.000000D+00  E= 9.856224D-01

 Vector   78  Occ=0.000000D+00  E= 9.989779D-01

 Vector   79  Occ=0.000000D+00  E= 1.023006D+00

 Vector   80  Occ=0.000000D+00  E= 1.029448D+00

 Vector   81  Occ=0.000000D+00  E= 1.035282D+00

 Vector   82  Occ=0.000000D+00  E= 1.043941D+00

 Vector   83  Occ=0.000000D+00  E= 1.066756D+00

 Vector   84  Occ=0.000000D+00  E= 1.085934D+00

 Vector   85  Occ=0.000000D+00  E= 1.095013D+00

 Vector   86  Occ=0.000000D+00  E= 1.101506D+00

 Vector   87  Occ=0.000000D+00  E= 1.123282D+00

 Vector   88  Occ=0.000000D+00  E= 1.131110D+00

 Vector   89  Occ=0.000000D+00  E= 1.148361D+00

 Vector   90  Occ=0.000000D+00  E= 1.193058D+00

 Vector   91  Occ=0.000000D+00  E= 1.199671D+00

 Vector   92  Occ=0.000000D+00  E= 1.234297D+00

 Vector   93  Occ=0.000000D+00  E= 1.322936D+00

 Vector   94  Occ=0.000000D+00  E= 1.365628D+00

 Vector   95  Occ=0.000000D+00  E= 1.481249D+00

 Vector   96  Occ=0.000000D+00  E= 1.500446D+00

 Vector   97  Occ=0.000000D+00  E= 1.589150D+00

 Vector   98  Occ=0.000000D+00  E= 1.643931D+00

 Vector   99  Occ=0.000000D+00  E= 1.670634D+00

 Vector  100  Occ=0.000000D+00  E= 1.720846D+00

 Vector  101  Occ=0.000000D+00  E= 1.764182D+00

 Vector  102  Occ=0.000000D+00  E= 1.929632D+00

 Vector  103  Occ=0.000000D+00  E= 2.004487D+00

 Vector  104  Occ=0.000000D+00  E= 2.173238D+00

 Vector  105  Occ=0.000000D+00  E= 2.331404D+00

 Vector  106  Occ=0.000000D+00  E= 2.522971D+00

 Vector  107  Occ=0.000000D+00  E= 3.113870D+00

     Multipole analysis of the density
     ---------------------------------

     L   x y z        total         alpha         beta         nuclear
     -   - - -        -----         -----         ----         -------
     0   0 0 0     -0.000000    -34.000000    -34.000000     68.000000

     1   1 0 0     -0.310473      0.840144      0.840144     -1.990761
     1   0 1 0      0.571660      1.919645      1.919645     -3.267631
     1   0 0 1     -0.121487     -0.283896     -0.283896      0.446304

     2   2 0 0    -40.239000   -180.147266   -180.147266    320.055532
     2   1 1 0     -2.287101     19.238207     19.238207    -40.763516
     2   1 0 1     -1.634481      9.875286      9.875286    -21.385053
     2   0 2 0    -39.815864   -253.878329   -253.878329    467.940793
     2   0 1 1     -2.620756     11.312145     11.312145    -25.245046

 Total times  cpu:       19.9s     wall:       21.1s
 Zero-Point correction to Energy  =  118.465 kcal/mol  (  0.188786 au)
 Thermal correction to Energy     =  124.568 kcal/mol  (  0.198512 au)
 Thermal correction to Enthalpy   =  125.160 kcal/mol  (  0.199455 au)
 Total Entropy                    =   93.432 cal/mol-K
   - Translational                =   40.344 cal/mol-K (mol. weight = 124.1059)
   - Rotational                   =   28.628 cal/mol-K (symmetry #  =        1)
   - Vibrational                  =   24.460 cal/mol-K
   - Translational                  =    2.979 cal/mol-K
   - Rotational                     =    2.979 cal/mol-K
   - Vibrational                    =   32.238 cal/mol-K
 P.Frequency       -0.00        0.00        0.00        0.00        0.00        0.00
 P.Frequency       70.08      154.42      194.60      215.02      235.39      269.56
 P.Frequency      298.10      335.29      350.98      395.47      440.10      481.51
 P.Frequency      552.73      618.89      663.32      705.34      733.45      788.66
 P.Frequency      826.09      864.81      895.59      943.69      961.52      966.38
 P.Frequency      976.15      999.96     1028.37     1057.93     1119.47     1157.35
 P.Frequency     1188.63     1206.33     1225.21     1229.57     1272.29     1286.26
 P.Frequency     1330.75     1371.26     1383.51     1411.53     1457.36     1501.20
 P.Frequency     1534.43     1543.17     1557.99     1563.34     1688.61     2621.51
 P.Frequency     2703.19     3035.19     3041.24     3068.73     3076.59     3101.44
 P.Frequency     3113.78     3117.04     3132.21     3160.45     3242.43     3441.56

 Normal Eigenvalue ||           Projected Infra Red Intensities
  Mode   [cm**-1]  || [atomic units] [(debye/angs)**2] [(KM/mol)] [arbitrary]
 ------ ---------- || -------------- ----------------- ---------- -----------
    1       -0.000 ||    0.000148           0.003         0.144       0.102
    2        0.000 ||    0.000113           0.003         0.110       0.078
    3        0.000 ||    0.000162           0.004         0.158       0.112
    4        0.000 ||    0.000122           0.003         0.118       0.084
    5        0.000 ||    0.000090           0.002         0.088       0.062
    6        0.000 ||    0.000096           0.002         0.094       0.066
    7       70.076 ||    0.000380           0.009         0.370       0.262
    8      154.420 ||    0.000906           0.021         0.884       0.624
    9      194.604 ||    0.004412           0.102         4.301       3.039
   10      215.019 ||    0.004848           0.112         4.726       3.340
   11      235.389 ||    0.003102           0.072         3.024       2.137
   12      269.564 ||    0.002289           0.053         2.231       1.577
   13      298.103 ||    0.138460           3.194       134.977      95.385
   14      335.295 ||    0.001388           0.032         1.353       0.956
   15      350.981 ||    0.000390           0.009         0.380       0.268
   16      395.467 ||    0.000563           0.013         0.549       0.388
   17      440.097 ||    0.002465           0.057         2.403       1.698
   18      481.509 ||    0.004940           0.114         4.816       3.403
   19      552.728 ||    0.003456           0.080         3.369       2.381
   20      618.887 ||    0.008737           0.202         8.518       6.019
   21      663.317 ||    0.002638           0.061         2.571       1.817
   22      705.341 ||    0.002029           0.047         1.978       1.398
   23      733.449 ||    0.006677           0.154         6.509       4.600
   24      788.660 ||    0.007414           0.171         7.228       5.108
   25      826.085 ||    0.003848           0.089         3.752       2.651
   26      864.807 ||    0.015127           0.349        14.746      10.421
   27      895.594 ||    0.001215           0.028         1.184       0.837
   28      943.690 ||    0.006420           0.148         6.258       4.423
   29      961.516 ||    0.077588           1.790        75.637      53.450
   30      966.377 ||    0.003886           0.090         3.788       2.677
   31      976.152 ||    0.028865           0.666        28.139      19.885
   32      999.963 ||    0.017696           0.408        17.251      12.191
   33     1028.371 ||    0.004632           0.107         4.516       3.191
   34     1057.931 ||    0.021980           0.507        21.427      15.142
   35     1119.473 ||    0.000996           0.023         0.971       0.686
   36     1157.345 ||    0.004321           0.100         4.212       2.976
   37     1188.629 ||    0.006961           0.161         6.786       4.796
   38     1206.327 ||    0.012430           0.287        12.117       8.563
   39     1225.212 ||    0.008531           0.197         8.316       5.877
   40     1229.569 ||    0.062304           1.437        60.737      42.921
   41     1272.288 ||    0.012887           0.297        12.563       8.878
   42     1286.261 ||    0.001639           0.038         1.598       1.129
   43     1330.747 ||    0.003962           0.091         3.862       2.729
   44     1371.261 ||    0.001875           0.043         1.828       1.292
   45     1383.506 ||    0.002260           0.052         2.204       1.557
   46     1411.529 ||    0.006591           0.152         6.425       4.541
   47     1457.363 ||    0.002546           0.059         2.482       1.754
   48     1501.201 ||    0.012361           0.285        12.050       8.515
   49     1534.430 ||    0.006305           0.145         6.146       4.344
   50     1543.172 ||    0.006246           0.144         6.089       4.303
   51     1557.986 ||    0.005412           0.125         5.276       3.728
   52     1563.339 ||    0.007606           0.175         7.415       5.240
   53     1688.612 ||    0.005799           0.134         5.653       3.995
   54     2621.514 ||    0.081934           1.890        79.874      56.444
   55     2703.187 ||    0.098470           2.272        95.993      67.836
   56     3035.194 ||    0.048932           1.129        47.702      33.710
   57     3041.240 ||    0.027041           0.624        26.361      18.629
   58     3068.734 ||    0.030347           0.700        29.584      20.906
   59     3076.590 ||    0.029287           0.676        28.550      20.176
   60     3101.441 ||    0.018307           0.422        17.846      12.612
   61     3113.779 ||    0.026804           0.618        26.130      18.465
   62     3117.036 ||    0.008522           0.197         8.308       5.871
   63     3132.207 ||    0.027796           0.641        27.097      19.149
   64     3160.449 ||    0.005238           0.121         5.106       3.609
   65     3242.431 ||    0.004716           0.109         4.597       3.249
   66     3441.560 ||    0.002545           0.059         2.481       1.753
 ----------------------------------------------------------------------------

 Total times  cpu:     1857.8s     wall:     1864.3s
  Root   1 singlet a              0.194167393 a.u.                5.2836 eV
     Dipole Oscillator Strength                    0.0051134049
  Root   2 singlet a              0.203160885 a.u.                5.5283 eV
     Dipole Oscillator Strength                    0.0573171828
  Root   3 singlet a              0.226857015 a.u.                6.1731 eV
     Dipole Oscillator Strength                    0.0540881917
  Root   4 singlet a              0.232725311 a.u.                6.3328 eV
     Dipole Oscillator Strength                    0.0061109984
  Root   5 singlet a              0.243017727 a.u.                6.6129 eV
     Dipole Oscillator Strength                    0.0090792570
  Root   6 singlet a              0.254777867 a.u.                6.9329 eV
     Dipole Oscillator Strength                    0.0107281719
  Root   7 singlet a              0.258953975 a.u.                7.0465 eV
     Dipole Oscillator Strength                    0.0692283421
  Root   8 singlet a              0.265544952 a.u.                7.2258 eV
     Dipole Oscillator Strength                    0.0284481699
  Root   9 singlet a              0.273982163 a.u.                7.4554 eV
     Dipole Oscillator Strength                    0.0247615993
  Root  10 singlet a              0.284756337 a.u.                7.7486 eV
     Dipole Oscillator Strength                    0.1251371516
  Root  11 singlet a              0.294109266 a.u.                8.0031 eV
     Dipole Oscillator Strength                    0.0114940166
  Root  12 singlet a              0.298359051 a.u.                8.1188 eV
     Dipole Oscillator Strength                    0.0035109204
  Root  13 singlet a              0.299006734 a.u.                8.1364 eV
     Dipole Oscillator Strength                    0.0046439489
  Root  14 singlet a              0.305208352 a.u.                8.3051 eV
     Dipole Oscillator Strength                    0.0057416954
  Root  15 singlet a              0.307119996 a.u.                8.3572 eV
     Dipole Oscillator Strength                    0.0216797520
  Root  16 singlet a              0.315609748 a.u.                8.5882 eV
     Dipole Oscillator Strength                    0.0169410007
  Root  17 singlet a              0.323655466 a.u.                8.8071 eV
     Dipole Oscillator Strength                    0.0266151096
  Root  18 singlet a              0.328613946 a.u.                8.9420 eV
     Dipole Oscillator Strength                    0.0182981072
  Root  19 singlet a              0.333371114 a.u.                9.0715 eV
     Dipole Oscillator Strength                    0.0275245890
  Root  20 singlet a              0.336150623 a.u.                9.1471 eV
     Dipole Oscillator Strength                    0.0373352725
 Total times  cpu:     2872.3s     wall:     2880.2s
