 Q-Chem 5.2, Q-Chem, Inc., Pleasanton, CA (2019)
 Q-Chem 5.2.1 for Mac (Intel) OS X

User input:
--------------------------------------------------------------
$molecule
0 1
S   -0.3638310   -0.1825380   -0.4506540
O    0.7843910   -1.1370370   -0.0916650
O   -1.4664540   -0.2735650    0.4679830
F    1.2756830    1.0026980    0.2135470
H    1.4833690   -0.2348150    0.1803410
$end

$rem
BASIS  =  6-311+G**
GUI  =  2
JOB_TYPE  =  Frequency
METHOD  =  PBE0
SCF_CONVERGENCE  =  8
SOLVENT_METHOD  =  SMD
$end

$smx
SOLVENT  water
$end

--------------------------------------------------------------

   13    -648.7011395848      6.86e-09  Convergence criterion met
 Total energy in the final basis set =     -648.6994515966
   12    -648.7011450482      2.16e-09  Convergence criterion met
 Total energy in the final basis set =     -648.6994571163
   12    -648.7011317815      2.16e-09  Convergence criterion met
 Total energy in the final basis set =     -648.6994437370
   12    -648.7011383435      2.16e-09  Convergence criterion met
 Total energy in the final basis set =     -648.6994506780
   12    -648.7011402531      2.17e-09  Convergence criterion met
 Total energy in the final basis set =     -648.6994519425
   12    -648.7011333570      2.15e-09  Convergence criterion met
 Total energy in the final basis set =     -648.6994453231
   12    -648.7011443202      2.16e-09  Convergence criterion met
 Total energy in the final basis set =     -648.6994563779
   12    -648.7011374760      2.16e-09  Convergence criterion met
 Frequency:     -1499.58                 101.56                 395.45
 Force Cnst:      1.4558                 0.0961                 1.4704
 Red. Mass:       1.0988                15.8165                15.9592
 IR Intens:      985.779                  7.672                398.494
 Frequency:       488.51                 643.14                 976.07
 Force Cnst:      2.0084                 3.7194                 0.6543
 Red. Mass:      14.2840                15.2619                 1.1657
 IR Intens:       45.244                  8.797                231.991
 Frequency:      1013.61                1299.91                1810.89
 Force Cnst:      3.7942                16.2758                 2.0044
 Red. Mass:       6.2681                16.3481                 1.0374
 IR Intens:      355.576                398.395                456.988
 Total job time:  80.89s(wall), 934.43s(cpu)
        *  Thank you very much for using Q-Chem.  Have a nice day.  *
 Q-Chem 5.2, Q-Chem, Inc., Pleasanton, CA (2019)
 Q-Chem 5.2.1 for Mac (Intel) OS X

User input:
--------------------------------------------------------------

$molecule
read
$end

$rem
BASIS  =  6-311+G**
GEOM_OPT_MAX_CYCLES  =  200
GUI  =  2
JOB_TYPE  =  TS
METHOD  =  PBE0
SCF_GUESS READ
GEOM_OPT_HESSIAN READ
SYMMETRY FALSE
SYM_IGNORE TRUE
SCF_CONVERGENCE  =  8
SOLVENT_METHOD  =  SMD
$end

$smx
SOLVENT  water
$end

--------------------------------------------------------------

 **  OPTIMIZATION CONVERGED  **
        *  Thank you very much for using Q-Chem.  Have a nice day.  *
 Q-Chem 5.2, Q-Chem, Inc., Pleasanton, CA (2019)
 Q-Chem 5.2.1 for Mac (Intel) OS X

User input:
--------------------------------------------------------------

$molecule
read
$end

$rem
BASIS  =  6-311+G**
GUI  =  2
JOB_TYPE  =  Frequency
METHOD  =  PBE0
SCF_CONVERGENCE  =  8
SOLVENT_METHOD  =  SMD
$end

$smx
SOLVENT  water
$end

--------------------------------------------------------------

 Total energy in the final basis set =     -648.6996641270
   12    -648.7013345660      2.19e-09  Convergence criterion met
 Total energy in the final basis set =     -648.6996639593
   12    -648.7013351612      2.20e-09  Convergence criterion met
 Total energy in the final basis set =     -648.6996638901
   12    -648.7013339049      2.21e-09  Convergence criterion met
 Total energy in the final basis set =     -648.6996638239
   12    -648.7013346101      2.21e-09  Convergence criterion met
 Total energy in the final basis set =     -648.6996642385
   12    -648.7013351226      2.19e-09  Convergence criterion met
 Total energy in the final basis set =     -648.6996641422
   12    -648.7013347872      2.21e-09  Convergence criterion met
 Total energy in the final basis set =     -648.6996639677
   12    -648.7013345883      2.20e-09  Convergence criterion met
 Total energy in the final basis set =     -648.6996640550

                    Orbital Energies (a.u.)
 --------------------------------------------------------------

 Alpha MOs
 -- Occupied --
-89.2533 -24.7486 -19.3000 -19.2814  -8.2218  -6.1585  -6.1574  -6.1509
 -1.2313  -1.1779  -1.1106  -0.7203  -0.6079  -0.5530  -0.5402  -0.5019
 -0.4274  -0.4255  -0.3974  -0.3942  -0.3721

          Ground-State Mulliken Net Atomic Charges

     Atom                 Charge (a.u.)
  ----------------------------------------
      1 S                     0.723957
      2 O                    -0.361672
      3 O                    -0.249681
      4 F                    -0.473901
      5 H                     0.361296
  ----------------------------------------
  Sum of atomic charges =     0.000000

                    Cartesian Multipole Moments
 -----------------------------------------------------------------
    Charge (ESU x 10^10)
                -0.0000
    Dipole Moment (Debye)
         X      -0.8240      Y      -0.9116      Z      -2.3150
       Tot       2.6210
    Quadrupole Moments (Debye-Ang)
        XX     -31.1519     XY      -1.8625     YY     -32.5453
        XZ       1.9074     YZ       0.3053     ZZ     -27.8996

             Standard Nuclear Orientation (Angstroms)
    I     Atom           X                Y                Z
 ----------------------------------------------------------------
    1      S      -0.3523260794    -0.1801621412    -0.4562475865
    2      O       0.7897415092    -1.1418360784    -0.0831603316
    3      O      -1.4493419894    -0.2685595136     0.4703422832
    4      F       1.2663723466     1.0058128000     0.2211614140
    5      H       1.4587122130    -0.2405120669     0.1674562209
 ----------------------------------------------------------------

 Frequency:     -1388.93                 115.19                 416.98
 Force Cnst:      1.2708                 0.1206                 1.4749
 Red. Mass:       1.1180                15.4235                14.3974
 IR Intens:      848.247                  7.219                421.863
 Frequency:       489.35                 649.88                 930.93
 Force Cnst:      1.8408                 3.7312                 0.5740
 Red. Mass:      13.0469                14.9945                 1.1241
 IR Intens:       48.769                  8.230                223.925
 Frequency:      1016.36                1296.71                1879.84
 Force Cnst:      4.6407                16.5581                 2.1622
 Red. Mass:       7.6248                16.7139                 1.0385
 IR Intens:      378.339                384.337                477.160

 STANDARD THERMODYNAMIC QUANTITIES AT   298.15 K  AND     1.00 ATM

   This Molecule has  1 Imaginary Frequencies
   Zero point vibrational energy:        9.714 kcal/mol

   Atom    1 Element S  Has Mass   31.97207
   Atom    2 Element O  Has Mass   15.99491
   Atom    3 Element O  Has Mass   15.99491
   Atom    4 Element F  Has Mass   18.99840
   Atom    5 Element H  Has Mass    1.00783
   Molecular Mass:    83.968120 amu
   Principal axes and moments of inertia in amu*Bohr^2:
                             1           2           3
    Eigenvalues --      161.31401   345.69297   438.03901
          X               0.92951    -0.36176     0.07174
          Y               0.36849     0.90289    -0.22138
          Z               0.01531     0.23221     0.97254
   Rotational Symmetry Number is   1
   The Molecule is an Asymmetric Top
   Translational Enthalpy:        0.889 kcal/mol
   Rotational Enthalpy:           0.889 kcal/mol
   Vibrational Enthalpy:         10.631 kcal/mol
   gas constant (RT):             0.592 kcal/mol
   Translational Entropy:        39.197  cal/mol.K
   Rotational Entropy:           24.705  cal/mol.K
   Vibrational Entropy:           5.379  cal/mol.K

   Total Enthalpy:               13.001 kcal/mol
   Total Entropy:                69.281  cal/mol.K

 Total job time:  84.82s(wall), 980.63s(cpu)
        *  Thank you very much for using Q-Chem.  Have a nice day.  *
