                         Program Version 4.2.1 -  RELEASE  -
|  1>
|  2> ! def2-SVP moread
|  3> %moinp "natorb/_scf.uno"
|  4>
|  5> %casscf
|  6>   nel 4
|  7>   norb 4
|  8>   mult 3, 1
|  9>   nroots 2, 2
| 10>   PTMethod SC_NEVPT2
| 11> end
| 12>
| 13> %maxcore 2000
| 14> %pal nprocs 1 end
| 15>
| 16> %base "_cas44"
| 17>
| 18> *xyzfile 0 1 start.xyz
| 19>
| 20>
| 21>                          ****END OF INPUT****

CARTESIAN COORDINATES (ANGSTROEM)
---------------------------------
  C     -1.366064    0.491143    0.000000
  C     -0.740284   -0.727867    0.000000
  C      0.681238   -0.727867    0.000000
  C      1.307018    0.491143    0.000000
  C      0.681238    1.710153    0.000000
  C     -0.740284    1.710153    0.000000
  H     -1.275713    2.653056    0.000000
  H      1.216667    2.653056    0.000000
  H      1.216667   -1.670770    0.000000
  H     -1.275713   -1.670770    0.000000

 Total Charge           Charge          ....    0
 Multiplicity           Mult            ....    1
 Number of Electrons    NEL             ....   40
 Basis Dimension        Dim             ....  104

ORBITAL ENERGIES
----------------

  NO   OCC          E(Eh)            E(eV)
   0   2.0000     -11.264457      -306.5215
   1   2.0000     -11.264440      -306.5210
   2   2.0000     -11.263501      -306.4954
   3   2.0000     -11.263423      -306.4933
   4   2.0000     -11.249970      -306.1273
   5   2.0000     -11.249707      -306.1201
   6   2.0000      -1.159856       -31.5613
   7   2.0000      -1.024831       -27.8871
   8   2.0000      -0.994976       -27.0747
   9   2.0000      -0.840877       -22.8814
  10   2.0000      -0.795749       -21.6534
  11   2.0000      -0.655836       -17.8462
  12   2.0000      -0.646872       -17.6023
  13   2.0000      -0.643296       -17.5050
  14   2.0000      -0.603533       -16.4230
  15   2.0000      -0.535619       -14.5749
  16   2.0000      -0.509401       -13.8615
  17   2.0000      -0.358953        -9.7676
  18   1.5185      -0.239913        -6.5284
  19   1.4479      -0.274845        -7.4789
  20   0.9529      -0.148528        -4.0416
  21   0.0807       0.175417         4.7733
  22   0.0000       0.114831         3.1247
  23   0.0000       0.197586         5.3766
  24   0.0000       0.212733         5.7888
  25   0.0000       0.244409         6.6507
  26   0.0000       0.253995         6.9116

MULLIKEN ATOMIC CHARGES AND SPIN DENSITIES
------------------------------------------
   0 C :    0.040819    0.421154
   1 C :   -0.089575    0.034123
   2 C :   -0.089578    0.034065
   3 C :    0.041296    0.421847
   4 C :   -0.089578    0.034065
   5 C :   -0.089575    0.034123
   6 H :    0.069042    0.005155
   7 H :    0.069054    0.005157
   8 H :    0.069054    0.005157
   9 H :    0.069042    0.005155
Sum of atomic charges       :   -0.0000000

LOEWDIN ATOMIC CHARGES AND SPIN DENSITIES
-----------------------------------------
   0 C :   -0.007896    0.390217
   1 C :   -0.033397    0.048678
   2 C :   -0.033391    0.048645
   3 C :   -0.007410    0.390846
   4 C :   -0.033391    0.048645
   5 C :   -0.033397    0.048678
   6 H :    0.037215    0.006071
   7 H :    0.037225    0.006074
   8 H :    0.037225    0.006074
   9 H :    0.037215    0.006071

  Mayer bond orders larger than 0.100000
B(  0-C ,  1-C ) :   1.2905 B(  0-C ,  5-C ) :   1.2905 B(  1-C ,  2-C ) :   1.5069
B(  1-C ,  9-H ) :   0.9950 B(  2-C ,  3-C ) :   1.2905 B(  2-C ,  8-H ) :   0.9950
B(  3-C ,  4-C ) :   1.2905 B(  4-C ,  5-C ) :   1.5069 B(  4-C ,  7-H ) :   0.9950
B(  5-C ,  6-H ) :   0.9950

FINAL SINGLE POINT ENERGY      -229.897069921317

DIPOLE MOMENT
-------------
                                X             Y             Z
Electronic contribution:      0.00204       0.00000       0.00000
Nuclear contribution   :      0.00000      -0.00000       0.00000
                        -----------------------------------------
Total Dipole Moment    :      0.00204      -0.00000       0.00000
                        -----------------------------------------
Magnitude (a.u.)       :      0.00204
Magnitude (Debye)      :      0.00520

Rotational constants in cm-1:     0.229530     0.186814     0.102990
Rotational constants in MHz :  6881.147990  5600.536815  3087.573773

                             ****ORCA TERMINATED NORMALLY****
TOTAL RUN TIME: 0 days 0 hours 0 minutes 42 seconds 725 msec
