                         Program Version 5.0.3 -  RELEASE  -
|  1> ! wPBEPP86 NOCOSX cc-pVDZ/C cc-pVDZ TightSCF
|  2> %Pal NProcs 8 end
|  3> %MaxCore 5000
|  4> %SCF
|  5>     AutoTRAH    True
|  6>     CNVDamp     False
|  7>     CNVZerner   False
|  8>     end
|  9> %cis
| 10>     NRoots      10
| 11>     Triplets    true
| 12>     TDA         true
| 13>     IRoot       1
| 14>     IROOTMULT   Triplet
| 15>     DoSOC       false
| 16>     DoNTO       True
| 17>     end
| 18> *xyz 0 1
| 19> C           -10.49500200     6.84375100     2.06081700
| 20> C           -11.89791600     6.75036900     2.15607000
| 21> C           -12.54084500     5.63388000     2.66444600
| 22> C           -11.73155700     4.55259000     3.05262800
| 23> C           -10.35062900     4.61029700     2.99396900
| 24> C            -9.70986900     5.77718100     2.53984700
| 25> N            -8.30252600     5.83374000     2.48921800
| 26> C            -7.66353400     6.63742400     1.55093100
| 27> C            -7.54905500     5.06304700     3.39548900
| 28> C            -6.34949600     8.28816600    -0.35624500
| 29> C            -7.67503600     8.50810200     0.01229300
| 30> C            -8.36335000     7.70435400     0.93431700
| 31> C            -6.31135300     6.38471400     1.20361800
| 32> C            -5.70289400     7.21023800     0.24664300
| 33> C            -6.24178100     4.64513800     3.07890800
| 34> C            -8.06851000     4.76654100     4.66882200
| 35> C            -7.33703900     3.99974700     5.55757300
| 36> C            -6.06553600     3.49282400     5.23639900
| 37> C            -5.54084000     3.84561400     4.00460900
| 38> B            -9.83027500     7.96619900     1.26506300
| 39> B            -5.54659700     5.23886900     1.85669000
| 40> C            -5.64373300     9.17261800    -1.33487600
| 41> C           -14.02959700     5.55537100     2.77868700
| 42> C            -5.31505500     2.64014800     6.20862100
| 43> C           -10.62227900     9.20257500     0.72829100
| 44> C            -4.12598500     4.78381500     1.38444700
| 45> C           -11.47591800    11.44838100     1.03794800
| 46> C           -12.07439300    11.42739000    -0.22082500
| 47> C           -11.93720500    10.27632400    -0.99962200
| 48> C           -11.22246600     9.16981000    -0.54391400
| 49> C           -10.75624500    10.35386100     1.51959900
| 50> C            -1.70858400     4.92157700     1.49958100
| 51> C            -2.96270000     5.35705000     1.92746500
| 52> C            -4.01323500     3.78464700     0.40170800
| 53> C            -2.75512200     3.37433900    -0.03487600
| 54> C            -1.60572800     3.93703800     0.51827300
| 55> C            -3.08437400     6.42084900     2.97617200
| 56> C            -5.25965700     3.18597000    -0.17563900
| 57> N            -0.33824900     3.50860200     0.08407700
| 58> C           -11.09192400     7.93836200    -1.38898700
| 59> C           -10.11935400    10.38571000     2.87605200
| 60> C           -12.84587100    12.60369200    -0.73338400
| 61> C             0.08511100     2.19268400     0.00746900
| 62> C             1.41218100     2.16283900    -0.47598300
| 63> C             1.80134800     3.53308100    -0.69674400
| 64> C             0.69150600     4.33106000    -0.33987200
| 65> C            -0.59406100     1.02536300     0.36075000
| 66> C             0.07911700    -0.17902900     0.20360000
| 67> C             1.39277300    -0.22801100    -0.28880600
| 68> C             2.06650700     0.93781500    -0.62508100
| 69> C             0.71621500     5.72116300    -0.46578300
| 70> C             1.88536400     6.29972900    -0.94201400
| 71> C             3.00214900     5.52287200    -1.28814100
| 72> C             2.96544700     4.14027200    -1.17330900
| 73> H           -12.48304800     7.59593500     1.77928900
| 74> H           -12.20300200     3.62701700     3.39274100
| 75> H            -9.76509800     3.73454100     3.27184000
| 76> H            -8.23052300     9.34229500    -0.43137400
| 77> H            -4.66755100     6.97613700    -0.02751500
| 78> H            -9.03669400     5.16407300     4.97197600
| 79> H            -7.75743700     3.80067600     6.54668500
| 80> H            -4.53045700     3.52477300     3.72902900
| 81> H            -6.35855300     9.76555600    -1.91992900
| 82> H            -5.03193200     8.58401500    -2.03216400
| 83> H            -4.97156300     9.87366000    -0.81820700
| 84> H           -14.50979300     6.38412700     2.24322600
| 85> H           -14.34721800     5.60572500     3.83059600
| 86> H           -14.41177800     4.61136500     2.36565500
| 87> H            -5.23415500     3.13186400     7.18853400
| 88> H            -4.30065700     2.42935900     5.84670500
| 89> H            -5.82487700     1.67853500     6.36602000
| 90> H           -11.57379000    12.34089800     1.66292100
| 91> H           -12.40203200    10.23950700    -1.98955900
| 92> H            -0.79840400     5.33558500     1.93950500
| 93> H            -2.65811900     2.62292200    -0.82180300
| 94> H            -2.10065200     6.78546300     3.29959500
| 95> H            -3.61952800     6.03979400     3.85949800
| 96> H            -3.66417900     7.27710900     2.59885000
| 97> H            -5.03281100     2.42099300    -0.92968500
| 98> H            -5.88275100     3.96175000    -0.64670700
| 99> H            -5.86946000     2.72166500     0.61488100
|100> H           -11.61230700     8.05056700    -2.34938500
|101> H           -11.51028400     7.06084300    -0.87182300
|102> H           -10.03465700     7.71083900    -1.59455300
|103> H           -10.30717300    11.33711100     3.39110600
|104> H            -9.02987400    10.24533800     2.80181700
|105> H           -10.50486000     9.57094200     3.50844000
|106> H           -12.88211900    13.40995500     0.01067300
|107> H           -13.87984700    12.32259800    -0.97976800
|108> H           -12.39060900    13.00807700    -1.64904300
|109> H            -1.61017300     1.06103300     0.75426400
|110> H            -0.42681600    -1.10778900     0.47149500
|111> H             1.88814900    -1.19286000    -0.40147400
|112> H             3.09192300     0.90123900    -0.99715100
|113> H            -0.15368600     6.32636500    -0.20943200
|114> H             1.93389500     7.38428000    -1.05002600
|115> H             3.90392700     6.01326800    -1.65608700
|116> H             3.82948300     3.53476300    -1.45285400
|117> *
|118>
|119>                          ****END OF INPUT****

CARTESIAN COORDINATES (ANGSTROEM)
---------------------------------
  C    -10.495002    6.843751    2.060817
  C    -11.897916    6.750369    2.156070
  C    -12.540845    5.633880    2.664446
  C    -11.731557    4.552590    3.052628
  C    -10.350629    4.610297    2.993969
  C     -9.709869    5.777181    2.539847
  N     -8.302526    5.833740    2.489218
  C     -7.663534    6.637424    1.550931
  C     -7.549055    5.063047    3.395489
  C     -6.349496    8.288166   -0.356245
  C     -7.675036    8.508102    0.012293
  C     -8.363350    7.704354    0.934317
  C     -6.311353    6.384714    1.203618
  C     -5.702894    7.210238    0.246643
  C     -6.241781    4.645138    3.078908
  C     -8.068510    4.766541    4.668822
  C     -7.337039    3.999747    5.557573
  C     -6.065536    3.492824    5.236399
  C     -5.540840    3.845614    4.004609
  B     -9.830275    7.966199    1.265063
  B     -5.546597    5.238869    1.856690
  C     -5.643733    9.172618   -1.334876
  C    -14.029597    5.555371    2.778687
  C     -5.315055    2.640148    6.208621
  C    -10.622279    9.202575    0.728291
  C     -4.125985    4.783815    1.384447
  C    -11.475918   11.448381    1.037948
  C    -12.074393   11.427390   -0.220825
  C    -11.937205   10.276324   -0.999622
  C    -11.222466    9.169810   -0.543914
  C    -10.756245   10.353861    1.519599
  C     -1.708584    4.921577    1.499581
  C     -2.962700    5.357050    1.927465
  C     -4.013235    3.784647    0.401708
  C     -2.755122    3.374339   -0.034876
  C     -1.605728    3.937038    0.518273
  C     -3.084374    6.420849    2.976172
  C     -5.259657    3.185970   -0.175639
  N     -0.338249    3.508602    0.084077
  C    -11.091924    7.938362   -1.388987
  C    -10.119354   10.385710    2.876052
  C    -12.845871   12.603692   -0.733384
  C      0.085111    2.192684    0.007469
  C      1.412181    2.162839   -0.475983
  C      1.801348    3.533081   -0.696744
  C      0.691506    4.331060   -0.339872
  C     -0.594061    1.025363    0.360750
  C      0.079117   -0.179029    0.203600
  C      1.392773   -0.228011   -0.288806
  C      2.066507    0.937815   -0.625081
  C      0.716215    5.721163   -0.465783
  C      1.885364    6.299729   -0.942014
  C      3.002149    5.522872   -1.288141
  C      2.965447    4.140272   -1.173309
  H    -12.483048    7.595935    1.779289
  H    -12.203002    3.627017    3.392741
  H     -9.765098    3.734541    3.271840
  H     -8.230523    9.342295   -0.431374
  H     -4.667551    6.976137   -0.027515
  H     -9.036694    5.164073    4.971976
  H     -7.757437    3.800676    6.546685
  H     -4.530457    3.524773    3.729029
  H     -6.358553    9.765556   -1.919929
  H     -5.031932    8.584015   -2.032164
  H     -4.971563    9.873660   -0.818207
  H    -14.509793    6.384127    2.243226
  H    -14.347218    5.605725    3.830596
  H    -14.411778    4.611365    2.365655
  H     -5.234155    3.131864    7.188534
  H     -4.300657    2.429359    5.846705
  H     -5.824877    1.678535    6.366020
  H    -11.573790   12.340898    1.662921
  H    -12.402032   10.239507   -1.989559
  H     -0.798404    5.335585    1.939505
  H     -2.658119    2.622922   -0.821803
  H     -2.100652    6.785463    3.299595
  H     -3.619528    6.039794    3.859498
  H     -3.664179    7.277109    2.598850
  H     -5.032811    2.420993   -0.929685
  H     -5.882751    3.961750   -0.646707
  H     -5.869460    2.721665    0.614881
  H    -11.612307    8.050567   -2.349385
  H    -11.510284    7.060843   -0.871823
  H    -10.034657    7.710839   -1.594553
  H    -10.307173   11.337111    3.391106
  H     -9.029874   10.245338    2.801817
  H    -10.504860    9.570942    3.508440
  H    -12.882119   13.409955    0.010673
  H    -13.879847   12.322598   -0.979768
  H    -12.390609   13.008077   -1.649043
  H     -1.610173    1.061033    0.754264
  H     -0.426816   -1.107789    0.471495
  H      1.888149   -1.192860   -0.401474
  H      3.091923    0.901239   -0.997151
  H     -0.153686    6.326365   -0.209432
  H      1.933895    7.384280   -1.050026
  H      3.903927    6.013268   -1.656087
  H      3.829483    3.534763   -1.452854

 Total Charge           Charge          ....    0
 Multiplicity           Mult            ....    1
 Number of Electrons    NEL             ....  368
 Basis Dimension        Dim             ....  976

ORBITAL ENERGIES
----------------

  NO   OCC          E(Eh)            E(eV)
   0   2.0000     -15.200619      -413.6299
   1   2.0000     -15.180592      -413.0849
   2   2.0000     -10.933786      -297.5234
   3   2.0000     -10.933712      -297.5214
   4   2.0000     -10.932260      -297.4819
   5   2.0000     -10.918771      -297.1149
   6   2.0000     -10.910809      -296.8982
   7   2.0000     -10.910724      -296.8959
   8   2.0000     -10.888745      -296.2978
   9   2.0000     -10.888041      -296.2787
  10   2.0000     -10.887094      -296.2529
  11   2.0000     -10.886759      -296.2438
  12   2.0000     -10.885885      -296.2200
  13   2.0000     -10.885209      -296.2016
  14   2.0000     -10.884319      -296.1774
  15   2.0000     -10.883287      -296.1493
  16   2.0000     -10.882405      -296.1253
  17   2.0000     -10.881793      -296.1086
  18   2.0000     -10.880919      -296.0849
  19   2.0000     -10.878306      -296.0138
  20   2.0000     -10.878076      -296.0075
  21   2.0000     -10.875171      -295.9284
  22   2.0000     -10.875157      -295.9281
  23   2.0000     -10.874153      -295.9008
  24   2.0000     -10.873687      -295.8881
  25   2.0000     -10.873643      -295.8869
  26   2.0000     -10.873244      -295.8760
  27   2.0000     -10.873178      -295.8742
  28   2.0000     -10.871436      -295.8268
  29   2.0000     -10.871342      -295.8242
  30   2.0000     -10.871233      -295.8213
  31   2.0000     -10.871067      -295.8168
  32   2.0000     -10.870983      -295.8145
  33   2.0000     -10.870457      -295.8002
  34   2.0000     -10.869778      -295.7817
  35   2.0000     -10.869619      -295.7774
  36   2.0000     -10.867081      -295.7083
  37   2.0000     -10.864984      -295.6512
  38   2.0000     -10.864961      -295.6506
  39   2.0000     -10.864892      -295.6487
  40   2.0000     -10.864891      -295.6487
  41   2.0000     -10.861912      -295.5677
  42   2.0000     -10.858877      -295.4851
  43   2.0000     -10.858388      -295.4717
  44   2.0000     -10.857231      -295.4403
  45   2.0000     -10.856927      -295.4320
  46   2.0000     -10.856886      -295.4309
  47   2.0000     -10.854582      -295.3682
  48   2.0000     -10.853953      -295.3511
  49   2.0000     -10.852122      -295.3013
  50   2.0000     -10.850434      -295.2553
  51   2.0000     -10.839617      -294.9610
  52   2.0000      -7.286868      -198.2858
  53   2.0000      -7.283138      -198.1843
  54   2.0000      -1.248332       -33.9688
  55   2.0000      -1.246308       -33.9138
  56   2.0000      -1.107488       -30.1363
  57   2.0000      -1.102395       -29.9977
  58   2.0000      -1.098835       -29.9008
  59   2.0000      -1.089169       -29.6378
  60   2.0000      -1.082230       -29.4490
  61   2.0000      -1.078224       -29.3400
  62   2.0000      -1.074572       -29.2406
  63   2.0000      -1.012938       -27.5634
  64   2.0000      -1.010357       -27.4932
  65   2.0000      -1.008077       -27.4312
  66   2.0000      -1.006453       -27.3870
  67   2.0000      -0.997802       -27.1516
  68   2.0000      -0.994908       -27.0728
  69   2.0000      -0.979037       -26.6410
  70   2.0000      -0.970457       -26.4075
  71   2.0000      -0.968914       -26.3655
  72   2.0000      -0.966387       -26.2967
  73   2.0000      -0.965599       -26.2753
  74   2.0000      -0.956673       -26.0324
  75   2.0000      -0.926870       -25.2214
  76   2.0000      -0.925767       -25.1914
  77   2.0000      -0.903079       -24.5740
  78   2.0000      -0.902385       -24.5552
  79   2.0000      -0.896674       -24.3997
  80   2.0000      -0.888720       -24.1833
  81   2.0000      -0.886310       -24.1177
  82   2.0000      -0.872261       -23.7354
  83   2.0000      -0.871750       -23.7215
  84   2.0000      -0.863590       -23.4995
  85   2.0000      -0.836632       -22.7659
  86   2.0000      -0.820114       -22.3164
  87   2.0000      -0.811925       -22.0936
  88   2.0000      -0.801473       -21.8092
  89   2.0000      -0.787742       -21.4355
  90   2.0000      -0.785386       -21.3714
  91   2.0000      -0.781546       -21.2670
  92   2.0000      -0.773113       -21.0375
  93   2.0000      -0.757556       -20.6141
  94   2.0000      -0.755782       -20.5659
  95   2.0000      -0.744310       -20.2537
  96   2.0000      -0.740229       -20.1427
  97   2.0000      -0.738751       -20.1024
  98   2.0000      -0.731089       -19.8939
  99   2.0000      -0.701277       -19.0827
 100   2.0000      -0.700217       -19.0539
 101   2.0000      -0.680755       -18.5243
 102   2.0000      -0.675390       -18.3783
 103   2.0000      -0.670972       -18.2581
 104   2.0000      -0.662801       -18.0357
 105   2.0000      -0.653100       -17.7717
 106   2.0000      -0.641826       -17.4650
 107   2.0000      -0.633601       -17.2412
 108   2.0000      -0.631963       -17.1966
 109   2.0000      -0.628143       -17.0926
 110   2.0000      -0.621375       -16.9085
 111   2.0000      -0.619076       -16.8459
 112   2.0000      -0.609649       -16.5894
 113   2.0000      -0.605953       -16.4888
 114   2.0000      -0.600971       -16.3532
 115   2.0000      -0.597890       -16.2694
 116   2.0000      -0.592579       -16.1249
 117   2.0000      -0.588333       -16.0093
 118   2.0000      -0.584076       -15.8935
 119   2.0000      -0.581565       -15.8252
 120   2.0000      -0.576983       -15.7005
 121   2.0000      -0.574058       -15.6209
 122   2.0000      -0.569943       -15.5089
 123   2.0000      -0.567763       -15.4496
 124   2.0000      -0.566624       -15.4186
 125   2.0000      -0.564362       -15.3571
 126   2.0000      -0.563738       -15.3401
 127   2.0000      -0.562981       -15.3195
 128   2.0000      -0.561286       -15.2734
 129   2.0000      -0.559203       -15.2167
 130   2.0000      -0.558461       -15.1965
 131   2.0000      -0.554188       -15.0802
 132   2.0000      -0.550300       -14.9744
 133   2.0000      -0.549348       -14.9485
 134   2.0000      -0.547097       -14.8873
 135   2.0000      -0.544383       -14.8134
 136   2.0000      -0.543371       -14.7859
 137   2.0000      -0.540202       -14.6996
 138   2.0000      -0.535392       -14.5688
 139   2.0000      -0.531864       -14.4727
 140   2.0000      -0.530441       -14.4340
 141   2.0000      -0.527054       -14.3419
 142   2.0000      -0.524176       -14.2635
 143   2.0000      -0.522781       -14.2256
 144   2.0000      -0.519240       -14.1292
 145   2.0000      -0.517574       -14.0839
 146   2.0000      -0.511050       -13.9064
 147   2.0000      -0.506679       -13.7874
 148   2.0000      -0.504974       -13.7410
 149   2.0000      -0.498424       -13.5628
 150   2.0000      -0.498161       -13.5557
 151   2.0000      -0.497400       -13.5349
 152   2.0000      -0.492085       -13.3903
 153   2.0000      -0.488472       -13.2920
 154   2.0000      -0.485224       -13.2036
 155   2.0000      -0.482325       -13.1247
 156   2.0000      -0.481733       -13.1086
 157   2.0000      -0.480065       -13.0632
 158   2.0000      -0.474107       -12.9011
 159   2.0000      -0.470775       -12.8104
 160   2.0000      -0.464997       -12.6532
 161   2.0000      -0.463404       -12.6099
 162   2.0000      -0.453802       -12.3486
 163   2.0000      -0.452752       -12.3200
 164   2.0000      -0.447338       -12.1727
 165   2.0000      -0.445789       -12.1305
 166   2.0000      -0.441963       -12.0264
 167   2.0000      -0.435353       -11.8466
 168   2.0000      -0.426753       -11.6125
 169   2.0000      -0.415099       -11.2954
 170   2.0000      -0.384668       -10.4673
 171   2.0000      -0.380190       -10.3455
 172   2.0000      -0.357209        -9.7202
 173   2.0000      -0.354113        -9.6359
 174   2.0000      -0.349018        -9.4973
 175   2.0000      -0.337833        -9.1929
 176   2.0000      -0.335713        -9.1352
 177   2.0000      -0.334049        -9.0899
 178   2.0000      -0.332909        -9.0589
 179   2.0000      -0.322789        -8.7835
 180   2.0000      -0.313615        -8.5339
 181   2.0000      -0.294698        -8.0191
 182   2.0000      -0.285240        -7.7618
 183   2.0000      -0.280276        -7.6267
 184   0.0000       0.000857         0.0233
 185   0.0000       0.043438         1.1820
 186   0.0000       0.057087         1.5534
 187   0.0000       0.068460         1.8629
 188   0.0000       0.075352         2.0504

MULLIKEN ATOMIC CHARGES
-----------------------
   0 C :   -0.070687
   1 C :    0.003420
   2 C :   -0.214239
   3 C :    0.012340
   4 C :   -0.064962
   5 C :    0.092514
   6 N :   -0.495442
   7 C :    0.042157
   8 C :    0.093015
   9 C :   -0.215715
  10 C :    0.024160
  11 C :   -0.076573
  12 C :   -0.073924
  13 C :    0.015203
  14 C :   -0.069372
  15 C :   -0.063232
  16 C :    0.012803
  17 C :   -0.214194
  18 C :   -0.001881
  19 B :    0.281957
  20 B :    0.285442
  21 C :   -0.002017
  22 C :   -0.006888
  23 C :   -0.007151
  24 C :   -0.050175
  25 C :   -0.043660
  26 C :    0.007618
  27 C :   -0.190758
  28 C :   -0.007583
  29 C :   -0.243160
  30 C :   -0.236386
  31 C :   -0.011324
  32 C :   -0.241890
  33 C :   -0.237416
  34 C :   -0.011282
  35 C :    0.129892
  36 C :   -0.000489
  37 C :   -0.029957
  38 N :   -0.529556
  39 C :   -0.001971
  40 C :   -0.029636
  41 C :   -0.010564
  42 C :    0.194964
  43 C :   -0.045262
  44 C :   -0.045434
  45 C :    0.195543
  46 C :   -0.046747
  47 C :   -0.025678
  48 C :   -0.035517
  49 C :   -0.043459
  50 C :   -0.046505
  51 C :   -0.025581
  52 C :   -0.035542
  53 C :   -0.043382
  54 H :    0.042483
  55 H :    0.031604
  56 H :    0.068542
  57 H :    0.045167
  58 H :    0.039902
  59 H :    0.069481
  60 H :    0.032537
  61 H :    0.040100
  62 H :    0.060392
  63 H :    0.069963
  64 H :    0.078135
  65 H :    0.061580
  66 H :    0.076865
  67 H :    0.068852
  68 H :    0.072209
  69 H :    0.060953
  70 H :    0.075805
  71 H :    0.007649
  72 H :    0.003646
  73 H :    0.038287
  74 H :    0.038994
  75 H :    0.055873
  76 H :    0.081486
  77 H :    0.079628
  78 H :    0.055668
  79 H :    0.090268
  80 H :    0.086768
  81 H :    0.051640
  82 H :    0.079481
  83 H :    0.075689
  84 H :    0.051511
  85 H :    0.083653
  86 H :    0.083080
  87 H :    0.051678
  88 H :    0.071616
  89 H :    0.073015
  90 H :    0.048666
  91 H :    0.037867
  92 H :    0.035397
  93 H :    0.028516
  94 H :    0.047630
  95 H :    0.037835
  96 H :    0.035490
  97 H :    0.028563
Sum of atomic charges:   -0.0000000

LOEWDIN ATOMIC CHARGES
----------------------
   0 C :   -0.038556
   1 C :    0.009300
   2 C :   -0.058966
   3 C :   -0.011485
   4 C :   -0.047965
   5 C :    0.013143
   6 N :    0.166878
   7 C :    0.048875
   8 C :    0.014307
   9 C :   -0.073044
  10 C :    0.041057
  11 C :   -0.050221
  12 C :   -0.050666
  13 C :    0.041047
  14 C :   -0.039496
  15 C :   -0.045954
  16 C :   -0.010261
  17 C :   -0.058942
  18 C :    0.006778
  19 B :   -0.202631
  20 B :   -0.205648
  21 C :   -0.065533
  22 C :   -0.065294
  23 C :   -0.065279
  24 C :   -0.023120
  25 C :   -0.015902
  26 C :   -0.053280
  27 C :   -0.038038
  28 C :   -0.051648
  29 C :   -0.025331
  30 C :   -0.023399
  31 C :   -0.047191
  32 C :   -0.023272
  33 C :   -0.019225
  34 C :   -0.046244
  35 C :   -0.032195
  36 C :   -0.060132
  37 C :   -0.060074
  38 N :    0.158892
  39 C :   -0.061697
  40 C :   -0.062006
  41 C :   -0.065580
  42 C :   -0.008032
  43 C :   -0.053157
  44 C :   -0.053172
  45 C :   -0.007957
  46 C :   -0.063527
  47 C :   -0.030819
  48 C :   -0.060519
  49 C :   -0.020537
  50 C :   -0.063659
  51 C :   -0.030750
  52 C :   -0.060501
  53 C :   -0.020461
  54 H :    0.044375
  55 H :    0.038387
  56 H :    0.042900
  57 H :    0.046392
  58 H :    0.044929
  59 H :    0.043652
  60 H :    0.038887
  61 H :    0.042918
  62 H :    0.039387
  63 H :    0.041233
  64 H :    0.043033
  65 H :    0.040424
  66 H :    0.042979
  67 H :    0.040383
  68 H :    0.041590
  69 H :    0.040369
  70 H :    0.042741
  71 H :    0.028117
  72 H :    0.028186
  73 H :    0.038014
  74 H :    0.038288
  75 H :    0.037120
  76 H :    0.046041
  77 H :    0.045942
  78 H :    0.037386
  79 H :    0.049073
  80 H :    0.048298
  81 H :    0.035265
  82 H :    0.045013
  83 H :    0.043472
  84 H :    0.035449
  85 H :    0.046278
  86 H :    0.045950
  87 H :    0.036227
  88 H :    0.041404
  89 H :    0.041866
  90 H :    0.037036
  91 H :    0.036800
  92 H :    0.034291
  93 H :    0.036581
  94 H :    0.036669
  95 H :    0.036796
  96 H :    0.034335
  97 H :    0.036615

  Mayer bond orders larger than 0.100000
B(  0-C ,  1-C ) :   1.3720 B(  0-C ,  5-C ) :   1.4014 B(  0-C , 19-B ) :   1.0352
B(  1-C ,  2-C ) :   1.4914 B(  1-C , 54-H ) :   0.9402 B(  2-C ,  3-C ) :   1.3774
B(  2-C , 22-C ) :   1.0862 B(  3-C ,  4-C ) :   1.5379 B(  3-C , 55-H ) :   0.9538
B(  4-C ,  5-C ) :   1.3640 B(  4-C , 56-H ) :   0.9442 B(  5-C ,  6-N ) :   1.0259
B(  6-N ,  7-C ) :   1.0993 B(  6-N ,  8-C ) :   1.0292 B(  7-C , 11-C ) :   1.3505
B(  7-C , 12-C ) :   1.3419 B(  8-C , 14-C ) :   1.4009 B(  8-C , 15-C ) :   1.3629
B(  9-C , 10-C ) :   1.4329 B(  9-C , 13-C ) :   1.4291 B(  9-C , 21-C ) :   1.0885
B( 10-C , 11-C ) :   1.4023 B( 10-C , 57-H ) :   0.9363 B( 11-C , 19-B ) :   1.0445
B( 12-C , 13-C ) :   1.4042 B( 12-C , 20-B ) :   1.0506 B( 13-C , 58-H ) :   0.9402
B( 14-C , 18-C ) :   1.3685 B( 14-C , 20-B ) :   1.0387 B( 15-C , 16-C ) :   1.5397
B( 15-C , 59-H ) :   0.9444 B( 16-C , 17-C ) :   1.3740 B( 16-C , 60-H ) :   0.9544
B( 17-C , 18-C ) :   1.4955 B( 17-C , 23-C ) :   1.0857 B( 18-C , 61-H ) :   0.9401
B( 19-B , 24-C ) :   0.9432 B( 20-B , 25-C ) :   0.9326 B( 21-C , 62-H ) :   0.9626
B( 21-C , 63-H ) :   0.9610 B( 21-C , 64-H ) :   0.9548 B( 22-C , 65-H ) :   0.9648
B( 22-C , 66-H ) :   0.9553 B( 22-C , 67-H ) :   0.9602 B( 23-C , 68-H ) :   0.9590
B( 23-C , 69-H ) :   0.9648 B( 23-C , 70-H ) :   0.9563 B( 24-C , 29-C ) :   1.4016
B( 24-C , 30-C ) :   1.4265 B( 25-C , 32-C ) :   1.4148 B( 25-C , 33-C ) :   1.4201
B( 26-C , 27-C ) :   1.4391 B( 26-C , 30-C ) :   1.4364 B( 26-C , 71-H ) :   0.9440
B( 27-C , 28-C ) :   1.4234 B( 27-C , 41-C ) :   1.0807 B( 28-C , 29-C ) :   1.4564
B( 28-C , 72-H ) :   0.9500 B( 29-C , 39-C ) :   1.1035 B( 30-C , 40-C ) :   1.1065
B( 31-C , 32-C ) :   1.4347 B( 31-C , 35-C ) :   1.4313 B( 31-C , 73-H ) :   0.9434
B( 32-C , 36-C ) :   1.1033 B( 33-C , 34-C ) :   1.4388 B( 33-C , 37-C ) :   1.1077
B( 34-C , 35-C ) :   1.4285 B( 34-C , 74-H ) :   0.9431 B( 35-C , 38-N ) :   0.9447
B( 36-C , 75-H ) :   0.9598 B( 36-C , 76-H ) :   0.9407 B( 36-C , 77-H ) :   0.9407
B( 37-C , 78-H ) :   0.9604 B( 37-C , 79-H ) :   0.9413 B( 37-C , 80-H ) :   0.9421
B( 38-N , 42-C ) :   1.0860 B( 38-N , 45-C ) :   1.0858 B( 39-C , 81-H ) :   0.9604
B( 39-C , 82-H ) :   0.9410 B( 39-C , 83-H ) :   0.9415 B( 40-C , 84-H ) :   0.9611
B( 40-C , 85-H ) :   0.9443 B( 40-C , 86-H ) :   0.9431 B( 41-C , 87-H ) :   0.9667
B( 41-C , 88-H ) :   0.9594 B( 41-C , 89-H ) :   0.9585 B( 42-C , 43-C ) :   1.3024
B( 42-C , 46-C ) :   1.3930 B( 43-C , 44-C ) :   1.1999 B( 43-C , 49-C ) :   1.4113
B( 44-C , 45-C ) :   1.3022 B( 44-C , 53-C ) :   1.4114 B( 45-C , 50-C ) :   1.3930
B( 46-C , 47-C ) :   1.5102 B( 46-C , 90-H ) :   0.9396 B( 47-C , 48-C ) :   1.4116
B( 47-C , 91-H ) :   0.9610 B( 48-C , 49-C ) :   1.5055 B( 48-C , 92-H ) :   0.9605
B( 49-C , 93-H ) :   0.9562 B( 50-C , 51-C ) :   1.5100 B( 50-C , 94-H ) :   0.9397
B( 51-C , 52-C ) :   1.4117 B( 51-C , 95-H ) :   0.9610 B( 52-C , 53-C ) :   1.5055
B( 52-C , 96-H ) :   0.9605 B( 53-C , 97-H ) :   0.9562

MP2 TOTAL ENERGY:    -2088.985454337 Eh

-----------------------------------------------------------------------------
         ABSORPTION SPECTRUM VIA TRANSITION ELECTRIC DIPOLE MOMENTS
-----------------------------------------------------------------------------
State   Energy    Wavelength  fosc         T2        TX        TY        TZ
        (cm-1)      (nm)                 (au**2)    (au)      (au)      (au)
-----------------------------------------------------------------------------
   1   25554.1    391.3   0.476252002   6.13553  -2.14818   1.19108  -0.31964
   2   34716.4    288.0   0.006754590   0.06405  -0.19424   0.10876  -0.12040
   3   34138.2    292.9   0.008155436   0.07865   0.23264   0.02666  -0.15431
   4   34651.0    288.6   0.064562899   0.61340  -0.70361   0.23923   0.24720
   5   32671.7    306.1   0.000564728   0.00569   0.03980  -0.05551   0.03202
   6   34996.2    285.7   0.078715283   0.74048   0.50306   0.37604  -0.58823
   7   34975.3    285.9   0.020039542   0.18863  -0.06611  -0.31738   0.28901
   8   40641.1    246.1   0.191771334   1.55344  -0.31663  -1.18740   0.20799
   9   39615.7    252.4   0.099892480   0.83012   0.85371  -0.25942   0.18439
  10   40657.0    246.0   0.440681803   3.56833  -1.66448   0.49710   0.74212
  11   23314.7    428.9   spin forbidden (mult=3)
  12   29234.9    342.1   spin forbidden (mult=3)
  13   30143.9    331.7   spin forbidden (mult=3)
  14   30227.3    330.8   spin forbidden (mult=3)
  15   32325.1    309.4   spin forbidden (mult=3)
  16   33369.2    299.7   spin forbidden (mult=3)
  17   32348.7    309.1   spin forbidden (mult=3)
  18   31402.9    318.4   spin forbidden (mult=3)
  19   30546.0    327.4   spin forbidden (mult=3)
  20   31921.8    313.3   spin forbidden (mult=3)

FINAL SINGLE POINT ENERGY     -2085.179943400643

DIPOLE MOMENT
-------------
                                X             Y             Z
Electronic contribution:     26.13190     -16.36638      -0.45574
Nuclear contribution   :    -27.37054      16.36288       1.16946
                        -----------------------------------------
Total Dipole Moment    :     -1.23864      -0.00350       0.71372
                        -----------------------------------------
Magnitude (a.u.)       :      1.42955
Magnitude (Debye)      :      3.63364

Rotational constants in cm-1:     0.003221     0.000796     0.000696
Rotational constants in MHz :    96.572561    23.868415    20.877184

                             ****ORCA TERMINATED NORMALLY****
TOTAL RUN TIME: 2 days 12 hours 37 minutes 53 seconds 871 msec
