                         Program Version 5.0.3 -  RELEASE  -
|  1> ! PBE0 NOCOSX NORI 6-31G** TightSCF
|  2> %Pal NProcs 8 end
|  3> %MaxCore 2500
|  4> %SCF
|  5>     AutoTRAH    True
|  6>     CNVDamp     False
|  7>     CNVZerner   False
|  8>     end
|  9> %cis
| 10>     NRoots      10
| 11>     Triplets    true
| 12>     TDA         true
| 13>     IRoot       1
| 14>     DoSOC       true
| 15>     end
| 16> *xyz 0 1
| 17> C            -1.41525000     0.23022000     0.00000000
| 18> C             1.41525000    -0.23022000     0.00000000
| 19> C            -0.49513000     1.31446000     0.00000000
| 20> C             0.49513000    -1.31446000     0.00000000
| 21> C             0.88941000     1.09095000     0.00000000
| 22> C            -0.88941000    -1.09095000     0.00000000
| 23> H            -0.87955000     2.34373000     0.00000000
| 24> H             0.87955000    -2.34373000     0.00000000
| 25> H             1.57790000     1.94501000     0.00000000
| 26> H            -1.57790000    -1.94501000     0.00000000
| 27> C             2.88458000    -0.52109000     0.00000000
| 28> C            -2.88458000     0.52109000     0.00000000
| 29> H             3.14034000    -1.59196000     0.00000000
| 30> H            -3.14034000     1.59196000     0.00000000
| 31> C             3.88004000     0.38225000     0.00000000
| 32> C            -3.88004000    -0.38225000     0.00000000
| 33> H             3.69468000     1.46244000     0.00000000
| 34> H            -3.69468000    -1.46244000     0.00000000
| 35> H             4.93165000     0.07110000     0.00000000
| 36> H            -4.93165000    -0.07110000     0.00000000
| 37> **                         ****END OF INPUT****

CARTESIAN COORDINATES (ANGSTROEM)
---------------------------------
  C     -1.415250    0.230220    0.000000
  C      1.415250   -0.230220    0.000000
  C     -0.495130    1.314460    0.000000
  C      0.495130   -1.314460    0.000000
  C      0.889410    1.090950    0.000000
  C     -0.889410   -1.090950    0.000000
  H     -0.879550    2.343730    0.000000
  H      0.879550   -2.343730    0.000000
  H      1.577900    1.945010    0.000000
  H     -1.577900   -1.945010    0.000000
  C      2.884580   -0.521090    0.000000
  C     -2.884580    0.521090    0.000000
  H      3.140340   -1.591960    0.000000
  H     -3.140340    1.591960    0.000000
  C      3.880040    0.382250    0.000000
  C     -3.880040   -0.382250    0.000000
  H      3.694680    1.462440    0.000000
  H     -3.694680   -1.462440    0.000000
  H      4.931650    0.071100    0.000000
  H     -4.931650   -0.071100    0.000000

 Total Charge           Charge          ....    0
 Multiplicity           Mult            ....    1
 Number of Electrons    NEL             ....   70
 Basis Dimension        Dim             ....  190

ORBITAL ENERGIES
----------------

  NO   OCC          E(Eh)            E(eV)
   0   2.0000     -10.251225      -278.9500
   1   2.0000     -10.251212      -278.9497
   2   2.0000     -10.243631      -278.7434
   3   2.0000     -10.243629      -278.7433
   4   2.0000     -10.241599      -278.6881
   5   2.0000     -10.241578      -278.6875
   6   2.0000     -10.240649      -278.6622
   7   2.0000     -10.240640      -278.6620
   8   2.0000     -10.231095      -278.4023
   9   2.0000     -10.231095      -278.4023
  10   2.0000      -0.879639       -23.9362
  11   2.0000      -0.821334       -22.3496
  12   2.0000      -0.782515       -21.2933
  13   2.0000      -0.765544       -20.8315
  14   2.0000      -0.731432       -19.9033
  15   2.0000      -0.649280       -17.6678
  16   2.0000      -0.619477       -16.8568
  17   2.0000      -0.587341       -15.9824
  18   2.0000      -0.565349       -15.3839
  19   2.0000      -0.511168       -13.9096
  20   2.0000      -0.494063       -13.4441
  21   2.0000      -0.464747       -12.6464
  22   2.0000      -0.452888       -12.3237
  23   2.0000      -0.447837       -12.1863
  24   2.0000      -0.427920       -11.6443
  25   2.0000      -0.409344       -11.1388
  26   2.0000      -0.397728       -10.8227
  27   2.0000      -0.387586       -10.5468
  28   2.0000      -0.361874        -9.8471
  29   2.0000      -0.351641        -9.5686
  30   2.0000      -0.342767        -9.3272
  31   2.0000      -0.328000        -8.9253
  32   2.0000      -0.278465        -7.5774
  33   2.0000      -0.261882        -7.1262
  34   2.0000      -0.219933        -5.9847
  35   0.0000      -0.045001        -1.2245
  36   0.0000       0.001789         0.0487
  37   0.0000       0.023431         0.6376
  38   0.0000       0.090321         2.4578
  39   0.0000       0.103949         2.8286

MULLIKEN ATOMIC CHARGES
-----------------------
   0 C :    0.067154
   1 C :    0.067154
   2 C :   -0.162971
   3 C :   -0.162971
   4 C :   -0.142536
   5 C :   -0.142536
   6 H :    0.128170
   7 H :    0.128170
   8 H :    0.124835
   9 H :    0.124835
  10 C :   -0.091601
  11 C :   -0.091601
  12 H :    0.123151
  13 H :    0.123151
  14 C :   -0.305945
  15 C :   -0.305945
  16 H :    0.125668
  17 H :    0.125668
  18 H :    0.134076
  19 H :    0.134076
Sum of atomic charges:    0.0000000

LOEWDIN ATOMIC CHARGES
----------------------
   0 C :   -0.022872
   1 C :   -0.022872
   2 C :   -0.077142
   3 C :   -0.077142
   4 C :   -0.072748
   5 C :   -0.072748
   6 H :    0.083823
   7 H :    0.083823
   8 H :    0.083569
   9 H :    0.083569
  10 C :   -0.076057
  11 C :   -0.076057
  12 H :    0.083199
  13 H :    0.083199
  14 C :   -0.164019
  15 C :   -0.164019
  16 H :    0.077367
  17 H :    0.077367
  18 H :    0.084882
  19 H :    0.084882

  Mayer bond orders larger than 0.100000
B(  0-C ,  2-C ) :   1.3717 B(  0-C ,  5-C ) :   1.3936 B(  0-C , 11-C ) :   1.0886
B(  1-C ,  3-C ) :   1.3717 B(  1-C ,  4-C ) :   1.3936 B(  1-C , 10-C ) :   1.0886
B(  2-C ,  4-C ) :   1.4491 B(  2-C ,  6-H ) :   0.9358 B(  3-C ,  5-C ) :   1.4491
B(  3-C ,  7-H ) :   0.9358 B(  4-C ,  8-H ) :   0.9326 B(  5-C ,  9-H ) :   0.9326
B( 10-C , 12-H ) :   0.9388 B( 10-C , 14-C ) :   1.8741 B( 11-C , 13-H ) :   0.9388
B( 11-C , 15-C ) :   1.8741 B( 14-C , 16-H ) :   0.9459 B( 14-C , 18-H ) :   0.9478
B( 15-C , 17-H ) :   0.9459 B( 15-C , 19-H ) :   0.9478

---------------------------------------------------------------------------------------------------------------------
                    SOC CORRECTED ABSORPTION SPECTRUM VIA TRANSITION ELECTRIC DIPOLE MOMENTS*
---------------------------------------------------------------------------------------------------------------------
   State    Energy  Wavelength   fosc         T2              TX                    TY                    TZ
            (cm-1)    (nm)                  (au**2)          (au)                  (au)                  (au)
---------------------------------------------------------------------------------------------------------------------
   0   1   21641.4    462.1   0.000000000   0.00000 ( -0.00000, -0.00000) ( -0.00000, -0.00000) ( -0.00000, -0.00000)
   0   2   21641.4    462.1   0.000000000   0.00000 (  0.00000, -0.00000) ( -0.00000, -0.00000) ( -0.00000,  0.00000)
   0   3   21641.4    462.1   0.000000000   0.00000 ( -0.00000, -0.00000) (  0.00000,  0.00000) ( -0.00000, -0.00000)
   0   4   30301.6    330.0   0.000000000   0.00000 (  0.00000, -0.00000) ( -0.00000,  0.00000) ( -0.00000, -0.00000)
   0   5   30301.6    330.0   0.000000000   0.00000 ( -0.00000, -0.00000) (  0.00000,  0.00000) (  0.00000, -0.00000)
   0   6   30301.6    330.0   0.000000000   0.00000 ( -0.00000, -0.00000) (  0.00000,  0.00000) ( -0.00000, -0.00000)
   0   7   32963.4    303.4   0.000000000   0.00000 ( -0.00000, -0.00000) (  0.00000,  0.00000) ( -0.00000, -0.00000)
   0   8   32963.4    303.4   0.000000000   0.00000 (  0.00000,  0.00000) ( -0.00000, -0.00000) (  0.00000, -0.00000)
   0   9   32963.4    303.4   0.000000000   0.00000 (  0.00006,  0.00003) ( -0.00000, -0.00000) ( -0.00000,  0.00000)
   0  10   35242.4    283.7   0.000000000   0.00000 (  0.00000, -0.00000) (  0.00000, -0.00000) (  0.00000,  0.00000)
   0  11   35242.4    283.7   0.000000000   0.00000 ( -0.00000, -0.00000) ( -0.00000, -0.00000) (  0.00000, -0.00000)
   0  12   35242.4    283.7   0.000000000   0.00000 (  0.00007,  0.00001) (  0.00001,  0.00000) ( -0.00000, -0.00000)
   0  13   36436.2    274.5   0.000000001   0.00000 ( -0.00005, -0.00007) (  0.00000,  0.00000) (  0.00000,  0.00000)
   0  14   36436.2    274.5   0.000000000   0.00000 ( -0.00000, -0.00000) (  0.00000,  0.00000) ( -0.00000, -0.00000)
   0  15   36436.2    274.5   0.000000000   0.00000 (  0.00000,  0.00000) ( -0.00000, -0.00000) ( -0.00000,  0.00000)
   0  16   37207.2    268.8   0.410162215   3.62914 ( -0.42139, -1.85636) ( -0.01642, -0.07235) (  0.00000,  0.00000)
   0  17   38343.2    260.8   0.540842419   4.64364 ( -1.52693,  1.52034) (  0.01826, -0.01818) (  0.00000, -0.00000)
   0  18   39588.3    252.6   0.000000000   0.00000 ( -0.00000,  0.00000) (  0.00000, -0.00000) (  0.00000, -0.00000)
   0  19   39588.3    252.6   0.000000000   0.00000 ( -0.00000, -0.00000) (  0.00000,  0.00000) ( -0.00000, -0.00000)
   0  20   39588.3    252.6   0.000000000   0.00000 ( -0.00002,  0.00003) (  0.00001, -0.00001) ( -0.00000, -0.00000)
   0  21   44452.3    225.0   0.000000000   0.00000 (  0.00000,  0.00000) (  0.00000,  0.00000) (  0.00000,  0.00000)
   0  22   44452.3    225.0   0.000000000   0.00000 (  0.00000, -0.00000) (  0.00000,  0.00000) (  0.00000, -0.00000)
   0  23   44452.3    225.0   0.000000000   0.00000 (  0.00000, -0.00000) ( -0.00000,  0.00000) (  0.00000, -0.00000)
   0  24   44996.6    222.2   0.000000000   0.00000 ( -0.00000, -0.00000) ( -0.00000, -0.00000) ( -0.00000, -0.00000)
   0  25   47614.1    210.0   0.000000000   0.00000 ( -0.00000,  0.00000) ( -0.00000,  0.00000) ( -0.00000,  0.00000)
   0  26   47614.1    210.0   0.000000000   0.00000 ( -0.00000,  0.00000) ( -0.00000,  0.00000) ( -0.00000, -0.00000)
   0  27   47614.1    210.0   0.000000000   0.00000 ( -0.00000, -0.00000) ( -0.00000, -0.00000) ( -0.00000,  0.00000)
   0  28   48835.6    204.8   0.322705054   2.17543 ( -0.88821,  0.47586) ( -0.94940,  0.50864) ( -0.00000,  0.00000)
   0  29   52318.9    191.1   0.000000003   0.00000 (  0.00000,  0.00000) ( -0.00000, -0.00000) (  0.00009,  0.00009)
   0  30   52319.0    191.1   0.000000000   0.00000 ( -0.00001, -0.00000) ( -0.00004, -0.00001) (  0.00000,  0.00000)
   0  31   52319.0    191.1   0.000000021   0.00000 (  0.00003, -0.00022) (  0.00004, -0.00028) (  0.00000, -0.00000)
   0  32   52510.9    190.4   0.000000000   0.00000 (  0.00000,  0.00000) (  0.00000,  0.00000) ( -0.00000, -0.00000)
   0  33   53563.7    186.7   0.000000000   0.00000 (  0.00000,  0.00000) (  0.00000, -0.00000) ( -0.00000,  0.00000)
   0  34   53563.7    186.7   0.000000000   0.00000 (  0.00000, -0.00000) (  0.00000, -0.00000) ( -0.00000,  0.00000)
   0  35   53563.7    186.7   0.000000000   0.00000 ( -0.00000, -0.00000) (  0.00000,  0.00000) (  0.00000,  0.00000)
   0  36   53783.9    185.9   0.000000000   0.00000 ( -0.00000, -0.00000) (  0.00000,  0.00000) ( -0.00000, -0.00000)
   0  37   54002.2    185.2   0.000047071   0.00029 (  0.00000, -0.00000) (  0.00000, -0.00000) ( -0.01123,  0.01268)
   0  38   55083.8    181.5   0.051117005   0.30550 ( -0.52558, -0.14576) ( -0.08633, -0.02394) (  0.00000,  0.00000)
   0  39   56074.8    178.3   0.000142635   0.00084 ( -0.00000, -0.00000) ( -0.00000, -0.00000) ( -0.02893, -0.00068)
   0  40   56193.2    178.0   0.000000000   0.00000 (  0.00000, -0.00000) (  0.00000, -0.00000) ( -0.00000,  0.00000)

FINAL SINGLE POINT ENERGY      -386.480542474504

DIPOLE MOMENT
-------------
                                X             Y             Z
Electronic contribution:      0.00000       0.00000      -0.00000
Nuclear contribution   :      0.00000       0.00000       0.00000
                        -----------------------------------------
Total Dipole Moment    :      0.00000       0.00000      -0.00000
                        -----------------------------------------
Magnitude (a.u.)       :      0.00000
Magnitude (Debye)      :      0.00000

Rotational constants in cm-1:     0.153923     0.022856     0.019901
Rotational constants in MHz :  4614.502149   685.206697   596.615374

                             ****ORCA TERMINATED NORMALLY****
TOTAL RUN TIME: 0 days 0 hours 2 minutes 12 seconds 946 msec
