 Gaussian 16, Revision C.01,
 Gaussian 16:  ES64L-G16RevC.01  3-Jul-2019

 --------------------------------------------------------------------
 #p SP MP5/6-31G* Symmetry=(Tight) Population=(Regular) Density=(SCF)
 --------------------------------------------------------------------

 ------------------------------------------------
 Ethane_Single_Point_Singlet_MP5_Gas_Phase_6_31G_
 ------------------------------------------------
 Symbolic Z-matrix:
 Charge =  0 Multiplicity = 1

                         Standard orientation:
 ---------------------------------------------------------------------
 Center     Atomic      Atomic             Coordinates (Angstroms)
 Number     Number       Type             X           Y           Z
 ---------------------------------------------------------------------
      1          6           0        0.761000   -0.000001    0.000000
      2          6           0       -0.761000    0.000000   -0.000000
      3          1           0        1.159660   -0.426833    0.926658
      4          1           0        1.159660   -0.589097   -0.832978
      5          1           0        1.159671    1.015926   -0.093680
      6          1           0       -1.159671   -1.015927    0.093680
      7          1           0       -1.159660    0.589096    0.832978
      8          1           0       -1.159660    0.426842   -0.926658
 ---------------------------------------------------------------------

 SCF Done:  E(UHF) =  -79.2283659708     A.U. after    9 cycles
 E2 =    -0.2663490719D+00 EUMP2 =    -0.79494715042741D+02

 The electronic state is 1-A.
 Alpha  occ. eigenvalues --  -11.21383 -11.21323  -1.01773  -0.83948  -0.59575
 Alpha  occ. eigenvalues --   -0.59575  -0.51129  -0.48478  -0.48478
 Alpha virt. eigenvalues --    0.24157   0.30073   0.31404   0.31404   0.33765
 Alpha virt. eigenvalues --    0.33765   0.41431   0.70589   0.74209   0.74209
 Alpha virt. eigenvalues --    0.85108   0.85108   0.94521   1.15035   1.15035

  Beta  occ. eigenvalues --  -11.21383 -11.21323  -1.01773  -0.83948  -0.59575
  Beta  occ. eigenvalues --   -0.59575  -0.51129  -0.48478  -0.48478
  Beta virt. eigenvalues --    0.24157   0.30073   0.31404   0.31404   0.33765
  Beta virt. eigenvalues --    0.33765   0.41431   0.70589   0.74209   0.74209
  Beta virt. eigenvalues --    0.85108   0.85108   0.94521   1.15035   1.15035

 Mulliken charges and spin densities:
               1          2
     1  C   -0.472400   0.000000
     2  C   -0.472400   0.000000
     3  H    0.157467   0.000000
     4  H    0.157467   0.000000
     5  H    0.157466   0.000000
     6  H    0.157467   0.000000
     7  H    0.157467   0.000000
     8  H    0.157467   0.000000
 Sum of Mulliken charges =   0.00000   0.00000

 Dipole moment (field-independent basis, Debye):
    X=              0.0000    Y=              0.0000    Z=              0.0000  Tot=              0.0000
 Quadrupole moment (field-independent basis, Debye-Ang):
   XX=            -15.5938   YY=            -14.9662   ZZ=            -14.9662
   XY=              0.0000   XZ=              0.0000   YZ=             -0.0000

 Normal termination of Gaussian 16 at Mon Nov  7 20:28:37 2022.
