 Q-Chem 5.3 (devel), Q-Chem, Inc., Pleasanton, CA (2020)
 Q-Chem 5.3.2 for Intel X86 EM64T Linux

User input:
--------------------------------------------------------------
$comment
image # 30 Energy = -230.01576: initial exact Hessian
$end

$molecule
0 1
C 2.18128   -0.45290  0.29432
C 0.90247   0.48625   0.17017
C 0.35130   0.41060   -1.20795
C -0.51607  -0.65225  -0.99990
C -0.84672  -0.40643  0.42215
C -2.10948  0.54613   0.51456
H 2.71676   -0.33950  1.26871
H 2.95136   -0.22802  -0.45187
H 1.94001   -1.49383  0.17603
H 1.32632   1.53481   0.42862
H 0.38544   1.13647   -1.95784
H -0.66213  -1.54720  -1.57617
H -1.19567  -1.35640  0.96419
H -2.53024  0.64993   1.56930
H -2.96341  0.17616   -0.05732
H -1.91897  1.54263   0.15243
$end

$rem
jobtype = freq
method = hf
basis = sto-3g
$end

--------------------------------------------------------------

   14    -230.0285576554      5.39e-09  Convergence criterion met
 Total energy in the final basis set =     -230.0285576554
 Frequency:      -537.09                 219.39                 233.94
 Force Cnst:      0.3791                 0.0329                 0.0632
 Red. Mass:       2.2308                 1.1594                 1.9597
 IR Intens:        0.431                  0.171                  2.242
 Frequency:       261.06                 327.09                 350.08
 Force Cnst:      0.0567                 0.1324                 0.1194
 Red. Mass:       1.4121                 2.1006                 1.6530
 IR Intens:        0.105                  0.271                  0.260
 Frequency:       414.32                 564.27                 714.03
 Force Cnst:      0.1920                 0.4000                 0.6402
 Red. Mass:       1.8981                 2.1322                 2.1313
 IR Intens:        0.839                  6.384                 11.918
 Frequency:       857.65                 927.97                1012.07
 Force Cnst:      0.9003                 1.7814                 1.0928
 Red. Mass:       2.0775                 3.5111                 1.8107
 IR Intens:        8.632                  4.123                  3.756
 Frequency:      1038.65                1128.29                1173.51
 Force Cnst:      1.1686                 1.0354                 1.0007
 Red. Mass:       1.8385                 1.3805                 1.2334
 IR Intens:        1.913                  3.057                  2.026
 Frequency:      1193.96                1224.33                1272.44
 Force Cnst:      1.2384                 1.1982                 1.7799
 Red. Mass:       1.4744                 1.3567                 1.8658
 IR Intens:        4.314                  7.132                  4.616
 Frequency:      1284.80                1333.78                1435.24
 Force Cnst:      1.5981                 2.1817                 1.6982
 Red. Mass:       1.6432                 2.0815                 1.3992
 IR Intens:        6.278                  0.504                 58.072
 Frequency:      1472.78                1551.28                1660.57
 Force Cnst:      1.9010                 2.8650                 3.4958
 Red. Mass:       1.4875                 2.0207                 2.1517
 IR Intens:        7.165                 19.977                  6.250
 Frequency:      1707.95                1745.56                1755.44
 Force Cnst:      2.5497                 2.5780                 2.6434
 Red. Mass:       1.4835                 1.4360                 1.4559
 IR Intens:       27.816                  9.515                  6.651
 Frequency:      1772.68                1831.08                1837.23
 Force Cnst:      2.3815                 2.0837                 2.0987
 Red. Mass:       1.2863                 1.0548                 1.0553
 IR Intens:        8.156                  1.810                  2.094
 Frequency:      1882.27                1893.18                3073.09
 Force Cnst:      2.2052                 2.2356                 6.0686
 Red. Mass:       1.0564                 1.0587                 1.0907
 IR Intens:        2.026                  1.982                 28.070
 Frequency:      3165.68                3224.87                3396.46
 Force Cnst:      6.4383                 6.5826                 7.2401
 Red. Mass:       1.0904                 1.0743                 1.0652
 IR Intens:       21.057                 10.208                  6.688
 Frequency:      3605.54                3621.65                3784.55
 Force Cnst:      8.3450                 8.3445                 9.2584
 Red. Mass:       1.0895                 1.0798                 1.0971
 IR Intens:        1.384                  1.535                 19.294
 Frequency:      3797.83                3815.86                4077.46
 Force Cnst:      9.3558                 9.4357                10.7509
 Red. Mass:       1.1009                 1.0999                 1.0975
 IR Intens:        1.304                  1.159                 24.723
 Total job time:  1.73s(wall), 1.72s(cpu)
        *  Thank you very much for using Q-Chem.  Have a nice day.  *

User input: 2 of 5

                  Welcome to Q-Chem
     A Quantum Leap Into The Future Of Chemistry

 Q-Chem 5.3 (devel), Q-Chem, Inc., Pleasanton, CA (2020)

 Yihan Shao,  Zhengting Gan,  E. Epifanovsky,  A. T. B. Gilbert,  M. Wormit,
 J. Kussmann,  A. W. Lange,  A. Behn,  Jia Deng,  Xintian Feng,  D. Ghosh,
 M. Goldey,  P. R. Horn,  L. D. Jacobson,  I. Kaliman,  T. Kus,  A. Landau,
 Jie Liu,  E. I. Proynov,  R. M. Richard,  R. P. Steele,  E. J. Sundstrom,
 H. L. Woodcock III,  P. M. Zimmerman,  D. Zuev,  B. Alam,  B. Albrecht,
 A. Aldossary,  E. Alguire,  S. A. Baeppler,  D. Barton,  Z. Benda,
 Y. A. Bernard,  E. J. Berquist,  K. B. Bravaya,  H. Burton,  K. Carter-Fenk,
 D. Casanova,  Chun-Min Chang,  Yunqing Chen,  A. Chien,  K. D. Closser,
 M. P. Coons,  S. Coriani,  S. Dasgupta,  A. L. Dempwolff,  M. Diedenhofen,
 Hainam Do,  R. G. Edgar,  Po-Tung Fang,  S. Faraji,  S. Fatehi,
 Qingguo Feng,  J. Fosso-Tande,  J. Gayvert,  Qinghui Ge,  A. Ghysels,
 G. Gidofalvi,  J. Gomes,  J. Gonthier,  S. Gulania,  A. Gunina,  D. Hait,
 M. W. D. Hanson-Heine,  S. Hammes-Schiffer,  P. H. P. Harbach,
 A. W. Hauser,  M. F. Herbst,  J. E. Herr,  E. G. Hohenstein,  Z. C. Holden,
 S. Houck,  Kerwin Hui,  B. C. Huynh,  M. Ivanov,  T.-C. Jagau,  Hyunjun Ji,
 B. Kaduk,  K. Khistyaev,  Jaehoon Kim,  P. Klunzinger,  K. Koh,
 D. Kosenkov,  L. Koulias,  T. Kowalczyk,  C. M. Krauter,  A. Kunitsa,
 Ka Un Lao,  A. Laurent,  K. V. Lawler,  Joonho Lee,  D. Lefrancois,
 S. Lehtola,  D. S. Levine,  Yi-Pei Li,  You-Sheng Lin,  Fenglai Liu,
 Kuan-Yu Liu,  E. Livshits,  M. Loipersberger,  A. Luenser,  A. Manjanath,
 P. Manohar,  E. Mansoor,  S. F. Manzer,  Shan-Ping Mao,  Yuezhi Mao,
 N. Mardirossian,  A. V. Marenich,  T. Markovich,  L. A. Martinez-Martinez,
 S. A. Maurer,  N. J. Mayhall,  S. C. McKenzie,  J.-M. Mewes,  P. Morgante,
 A. F. Morrison,  J. W. Mullinax,  K. Nanda,  T. S. Nguyen-Beck,
 R. Olivares-Amaya,  K. J. Oosterbaan,  J. A. Parkhill,  S. K. Paul,
 F. Pavosevic,  Zheng Pei,  T. M. Perrine,  F. Plasser,  P. Pokhilko,
 S. Prager,  A. Prociuk,  E. Ramos,  B. Rana,  D. R. Rehn,  F. Rob,
 E. Rossomme,  M. Scheurer,  M. Schneider,  N. Sergueev,  S. M. Sharada,
 S. Sharma,  W. Skomorowski,  D. W. Small,  T. Stauch,  C. J. Stein,
 T. Stein,  Yu-Chuan Su,  S. P. Veccham,  Zhen Tao,  A. J. W. Thom,
 A. Tkatchenko,  T. Tsuchimochi,  N. M. Tubman,  L. Vogt,  M. L. Vidal,
 O. Vydrov,  M. A. Watson,  J. Wenzel,  M. de Wergifosse,  T. A. Wesolowski,
 A. White,  J. Witte,  A. Yamada,  Jun Yang,  K. Yao,  S. Yeganeh,
 S. R. Yost,  Zhi-Qiang You,  A. Zech,  Igor Ying Zhang,  Xing Zhang,
 Yan Zhao,  Ying Zhu,  B. R. Brooks,  G. K. L. Chan,  C. J. Cramer,
 M. S. Gordon,  W. J. Hehre,  A. Klamt,  M. W. Schmidt,  C. D. Sherrill,
 D. G. Truhlar,  A. Aspuru-Guzik,  R. Baer,  A. T. Bell,  N. A. Besley,
 Jeng-Da Chai,  A. E. DePrince, III,  R. A. DiStasio Jr.,  A. Dreuw,
 B. D. Dunietz,  T. R. Furlani,  Chao-Ping Hsu,  Yousung Jung,  Jing Kong,
 D. S. Lambrecht,  WanZhen Liang,  C. Ochsenfeld,  V. A. Rassolov,
 L. V. Slipchenko,  J. E. Subotnik,  T. Van Voorhis,  J. M. Herbert,
 A. I. Krylov,  P. M. W. Gill,  M. Head-Gordon

 Contributors to earlier versions of Q-Chem not listed above:
 R. D. Adamson,  B. Austin,  J. Baker,  G. J. O. Beran,  K. Brandhorst,
 S. T. Brown,  E. F. C. Byrd,  A. K. Chakraborty,  C.-L. Cheng,
 Siu Hung Chien,  D. M. Chipman,  D. L. Crittenden,  H. Dachsel,
 R. J. Doerksen,  A. D. Dutoi,  L. Fusti-Molnar,  W. A. Goddard III,
 A. Golubeva-Zadorozhnaya,  S. R. Gwaltney,  G. Hawkins,  A. Heyden,
 S. Hirata,  G. Kedziora,  F. J. Keil,  C. Kelley,  Jihan Kim,  R. A. King,
 R. Z. Khaliullin,  P. P. Korambath,  W. Kurlancheek,  A. M. Lee,  M. S. Lee,
 S. V. Levchenko,  Ching Yeh Lin,  D. Liotard,  R. C. Lochan,  I. Lotan,
 P. E. Maslen,  N. Nair,  D. P. O'Neill,  D. Neuhauser,  E. Neuscamman,
 C. M. Oana,  R. Olson,  B. Peters,  R. Peverati,  P. A. Pieniazek,
 Y. M. Rhee,  J. Ritchie,  M. A. Rohrdanz,  E. Rosta,  N. J. Russ,
 H. F. Schaefer III,  N. E. Schultz,  N. Shenvi,  A. C. Simmonett,  A. Sodt,
 D. Stuck,  K. S. Thanthiriwatte,  V. Vanovschi,  Tao Wang,  A. Warshel,
 C. F. Williams,  Q. Wu,  X. Xu,  W. Zhang

 Please cite Q-Chem as follows:
 Y. Shao et al., Mol. Phys. 113, 184-215 (2015)
 DOI: 10.1080/00268976.2014.952696

 Q-Chem 5.3.2 for Intel X86 EM64T Linux

 Parts of Q-Chem use Armadillo 9.800.1 (Horizon Scraper).
 http://arma.sourceforge.net/

Compilation information
-----------------------

 SVN revision             | 35976
 SVN branch               | trunk
 Last SVN revision        | 35971
 Last SVN author          | tarek.scheele
 Hostname                 | osmium
 User                     | eric
 System                   | Linux-5.8.14-arch1-1
 Processor                | x86_64
 Compiler                 | GNU
 C compiler version       | 9.3.0
 CXX compiler version     | 9.3.0
 Fortran compiler version | 9.3.0
 Configuration time       | 2021-02-25 00:06:41

 Q-Chem begins on Mon Apr 26 11:21:03 2021

Host: osmium
0

     Scratch files written to /tmp/qchem/ts_30//
Processing $rem in /home/eric/data/opt/apps/qchem/archive/r35971-g9.3.0-openblas/config/preferences:
Processing $rem in /home/eric/.qchemrc:
The previous job contains 0 fragments, simply inherited here

Checking the input file for inconsistencies... 	...done.

--------------------------------------------------------------
User input:
--------------------------------------------------------------

$comment
image # 30 Energy = -230.01576: TS search
$end

$molecule
read
$end

$rem
jobtype = ts
method = hf
basis = sto-3g
scf_guess = read
geom_opt_max_cycles = 200
geom_opt_hessian = read
$end

--------------------------------------------------------------

    2    -230.0285576484      7.84e-10  Convergence criterion met
 Total energy in the final basis set =     -230.0285576484
   12    -230.0248951502      7.11e-09  Convergence criterion met
 Total energy in the final basis set =     -230.0248951502
   12    -230.0277693171      8.05e-09  Convergence criterion met
 Total energy in the final basis set =     -230.0277693171
   12    -230.0358415011      4.26e-09  Convergence criterion met
 Total energy in the final basis set =     -230.0358415011
   12    -230.0453388724      4.08e-09  Convergence criterion met
 Total energy in the final basis set =     -230.0453388724
   12    -230.0525099490      3.47e-09  Convergence criterion met
 Total energy in the final basis set =     -230.0525099490
   11    -230.0570898829      9.58e-09  Convergence criterion met
 **  OPTIMIZATION CONVERGED  **
 Q-Chem 5.3 (devel), Q-Chem, Inc., Pleasanton, CA (2020)
 Q-Chem 5.3.2 for Intel X86 EM64T Linux
 Frequency:      -948.37                 205.79                 280.30
 Force Cnst:      1.5318                 0.0648                 0.0556
 Red. Mass:       2.8906                 2.5966                 1.2002
 IR Intens:        0.347                  0.555                  0.054
 Frequency:       314.26                 357.83                 393.60
 Force Cnst:      0.0614                 0.1775                 0.1906
 Red. Mass:       1.0549                 2.3533                 2.0886
 IR Intens:        0.178                  1.738                  0.012
 Frequency:       427.29                 658.67                 874.20
 Force Cnst:      0.2845                 0.5983                 1.1416
 Red. Mass:       2.6445                 2.3405                 2.5354
 IR Intens:        0.362                  3.723                  2.744
 Frequency:       909.84                 978.46                1037.21
 Force Cnst:      0.6217                 0.9978                 1.1712
 Red. Mass:       1.2747                 1.7689                 1.8477
 IR Intens:       17.713                 27.148                  0.207
 Frequency:      1043.04                1154.59                1175.07
 Force Cnst:      1.0705                 1.1735                 1.1204
 Red. Mass:       1.6701                 1.4941                 1.3771
 IR Intens:       10.294                  8.530                  1.273
 Frequency:      1248.46                1275.11                1287.83
 Force Cnst:      1.1431                 1.3517                 1.4516
 Red. Mass:       1.2447                 1.4110                 1.4855
 IR Intens:        8.255                  2.049                  3.250
 Frequency:      1296.05                1320.63                1383.39
 Force Cnst:      1.4274                 1.5846                 1.6660
 Red. Mass:       1.4423                 1.5421                 1.4775
 IR Intens:       14.543                  1.145                  7.844
 Frequency:      1422.70                1594.27                1719.68
 Force Cnst:      1.9530                 2.0509                 2.1758
 Red. Mass:       1.6377                 1.3695                 1.2488
 IR Intens:       10.958                  8.658                 42.511
 Frequency:      1723.09                1730.35                1778.28
 Force Cnst:      3.1697                 3.2287                 3.9228
 Red. Mass:       1.8119                 1.8302                 2.1055
 IR Intens:        0.368                  5.873                  2.896
 Frequency:      1804.73                1818.33                1819.53
 Force Cnst:      4.3062                 2.0543                 2.1468
 Red. Mass:       2.2440                 1.0546                 1.1006
 IR Intens:       16.726                  4.895                  2.259
 Frequency:      1851.63                1851.97                3549.76
 Force Cnst:      2.1648                 2.3339                 7.7216
 Red. Mass:       1.0716                 1.1550                 1.0401
 IR Intens:        0.649                  4.308                  9.717
 Frequency:      3549.79                3601.52                3608.32
 Force Cnst:      7.7214                 8.3288                 8.3594
 Red. Mass:       1.0400                 1.0898                 1.0897
 IR Intens:        4.015                 21.832                  0.049
 Frequency:      3692.25                3710.19                3710.31
 Force Cnst:      8.7757                 8.9734                 8.9742
 Red. Mass:       1.0926                 1.1064                 1.1064
 IR Intens:        0.057                  1.219                  1.457
 Frequency:      3722.23                3760.60                3760.66
 Force Cnst:      9.0709                 9.2427                 9.2430
 Red. Mass:       1.1112                 1.1093                 1.1093
 IR Intens:        1.017                  1.190                  0.379

 STANDARD THERMODYNAMIC QUANTITIES AT   298.15 K  AND     1.00 ATM

   This Molecule has  1 Imaginary Frequencies
   Zero point vibrational energy:      104.933 kcal/mol

   Atom    1 Element C  Has Mass   12.00000
   Atom    2 Element C  Has Mass   12.00000
   Atom    3 Element C  Has Mass   12.00000
   Atom    4 Element C  Has Mass   12.00000
   Atom    5 Element C  Has Mass   12.00000
   Atom    6 Element C  Has Mass   12.00000
   Atom    7 Element H  Has Mass    1.00783
   Atom    8 Element H  Has Mass    1.00783
   Atom    9 Element H  Has Mass    1.00783
   Atom   10 Element H  Has Mass    1.00783
   Atom   11 Element H  Has Mass    1.00783
   Atom   12 Element H  Has Mass    1.00783
   Atom   13 Element H  Has Mass    1.00783
   Atom   14 Element H  Has Mass    1.00783
   Atom   15 Element H  Has Mass    1.00783
   Atom   16 Element H  Has Mass    1.00783
   Molecular Mass:    82.078300 amu
   Principal axes and moments of inertia in amu*Bohr^2:
                             1           2           3
    Eigenvalues --      371.21234   554.16380   677.98091
          X               0.99988     0.00001    -0.01520
          Y              -0.00001     1.00000    -0.00001
          Z               0.01520     0.00001     0.99988
   Rotational Symmetry Number is   1
   The Molecule is an Asymmetric Top
   Translational Enthalpy:        0.889 kcal/mol
   Rotational Enthalpy:           0.889 kcal/mol
   Vibrational Enthalpy:        106.707 kcal/mol
   gas constant (RT):             0.592 kcal/mol
   Translational Entropy:        39.129  cal/mol.K
   Rotational Entropy:           26.436  cal/mol.K
   Vibrational Entropy:           9.163  cal/mol.K

   Total Enthalpy:              109.077 kcal/mol
   Total Entropy:                74.728  cal/mol.K

 Q-Chem 5.3 (devel), Q-Chem, Inc., Pleasanton, CA (2020)
 Q-Chem 5.3.2 for Intel X86 EM64T Linux
    9    -230.2040630314      5.96e-09  Convergence criterion met
 Total energy in the final basis set =     -230.2040630314
   10    -230.1922486575      1.83e-09  Convergence criterion met
 Total energy in the final basis set =     -230.1922486575
   10    -230.2040816947      2.47e-09  Convergence criterion met
 Total energy in the final basis set =     -230.2040816947
    6    -230.2040816529      5.71e-09  Convergence criterion met
 Total energy in the final basis set =     -230.2040816529
    6    -230.2040850206      2.86e-09  Convergence criterion met
 Total energy in the final basis set =     -230.2040850206
 Q-Chem 5.3 (devel), Q-Chem, Inc., Pleasanton, CA (2020)
 Q-Chem 5.3.2 for Intel X86 EM64T Linux
   13    -230.0655739078      3.86e-09  Convergence criterion met
 Total energy in the final basis set =     -230.0655739078

             Standard Nuclear Orientation (Angstroms)
    I     Atom           X                Y                Z
 ----------------------------------------------------------------
    1      C      -1.7155222787    -0.8350053990     0.3978744566
    2      C      -0.8588952053    -0.1121272691    -0.6542991682
    3      C      -0.4145089324     1.2109364104    -0.5567348108
    4      C       0.4146371471     1.2108884182     0.5567199774
    5      C       0.8588175361    -0.1122442922     0.6542034708
    6      C       1.7154919689    -0.8351253088    -0.3979333286
    7      H      -1.4402729223    -1.8835989650     0.4895146563
    8      H      -2.7592835675    -0.8046701211     0.0838595828
    9      H      -1.6402856903    -0.3692454488     1.3743481602
   10      H      -1.0870938968    -0.5108810446    -1.6472092752
   11      H      -0.5747729884     1.9878776184    -1.2943571440
   12      H       0.5749020567     1.9877466392     1.2944387767
   13      H       1.0867860615    -0.5111655595     1.6470955234
   14      H       1.4399393926    -1.8836089002    -0.4899461425
   15      H       2.7591564459    -0.8052122540    -0.0835643609
   16      H       1.6407565487    -0.3690723029    -1.3742983852
 ----------------------------------------------------------------

    7    -230.0655738397      8.68e-09  Convergence criterion met
 Total energy in the final basis set =     -230.0655738397
 Final energy is   -230.06557383970787
 **  OPTIMIZATION CONVERGED  **

                    Orbital Energies (a.u.)
 --------------------------------------------------------------

 Alpha MOs
 -- Occupied --
-11.0430 -11.0430 -11.0298 -11.0295 -11.0054 -11.0051  -1.0770  -0.9591
 -0.9200  -0.8375  -0.7390  -0.6530  -0.6292  -0.5728  -0.5475  -0.5245
 -0.5183  -0.4899  -0.4714  -0.4552  -0.4359  -0.2753  -0.2384

          Ground-State Mulliken Net Atomic Charges

     Atom                 Charge (a.u.)
  ----------------------------------------
      1 C                    -0.172836
      2 C                    -0.024279
      3 C                    -0.077465
      4 C                    -0.077488
      5 C                    -0.024263
      6 C                    -0.172839
      7 H                     0.060647
      8 H                     0.058018
      9 H                     0.066702
     10 H                     0.036523
     11 H                     0.052691
     12 H                     0.052695
     13 H                     0.036523
     14 H                     0.060648
     15 H                     0.058020
     16 H                     0.066704
  ----------------------------------------
  Sum of atomic charges =     0.000000

                    Cartesian Multipole Moments
 -----------------------------------------------------------------
    Charge (ESU x 10^10)
                 0.0000
    Dipole Moment (Debye)
         X       0.0000      Y      -0.4413      Z       0.0001
       Tot       0.4413
    Quadrupole Moments (Debye-Ang)
        XX     -36.3669     XY      -0.0001     YY     -36.2234
        XZ       0.4853     YZ       0.0000     ZZ     -35.7453

 Total job time:  0.71s(wall), 0.70s(cpu)
        *  Thank you very much for using Q-Chem.  Have a nice day.  *
